                              Psi4 1.0.0 Driver

  ==> Input File <==

--------------------------------------------------------------------------

memory 1000 mb

molecule butane {
  symmetry C1
  0 1
  H      1.604   0.760   -8.260
  H      1.745   2.388   -8.880
  H      2.043   1.024   -9.930
  C      2.142   1.395   -8.932
  H      4.169   2.051   -9.210
  H      3.731   1.788   -7.539
  C      3.631   1.416   -8.537
  H      5.109   -0.003   -9.180
  H      4.406   -0.367   -7.624
  C      4.203   -0.012   -8.612
  H      3.578   -1.932   -9.343
  H      2.976   -0.586   -10.279
  H      2.273   -0.950   -8.723
  C      3.180   -0.941   -9.291
  units Angstrom
}

dih_string = "4 7 10 14 10"
set optking fixed_dihedral = $dih_string

optimize('B3LYP/cc-PVDZ')
--------------------------------------------------------------------------

    Molecular point group: c1
  Charge       = 0
  Multiplicity = 1
  Basis Set: CC-PVDZ
   => B3LYP Composite Functional <=
  Basis Set:
  @DF-RKS Final Energy:  -158.43157617178025
    Total Energy =                       -158.4315761717802502
    Molecular point group: c1
  Basis Set: CC-PVDZ
  Basis Set:
   => B3LYP Composite Functional <=
  Basis Set: CC-PVDZ
   => B3LYP Composite Functional <=
  Basis Set:
  @DF-RKS Final Energy:  -158.44197460978222
    Total Energy =                       -158.4419746097822213
  Basis Set: CC-PVDZ
  Basis Set:
   => B3LYP Composite Functional <=
  Basis Set: CC-PVDZ
   => B3LYP Composite Functional <=
  Basis Set:
  @DF-RKS Final Energy:  -158.44713976629689
    Total Energy =                       -158.4471397662968855
  Basis Set: CC-PVDZ
  Basis Set:
  @DF-RKS Final Energy:  -158.44932628020808
    Total Energy =                       -158.4493262802080835
  @DF-RKS Final Energy:  -158.45012476735923
    Total Energy =                       -158.4501247673592275
   => B3LYP Composite Functional <=
  Basis Set:
  @DF-RKS Final Energy:  -158.45031079002354
    Total Energy =                       -158.4503107900235364
  Basis Set: CC-PVDZ
  Basis Set:
   => B3LYP Composite Functional <=
  Basis Set: CC-PVDZ
   => B3LYP Composite Functional <=
  Basis Set:
  @DF-RKS Final Energy:  -158.45031624372660
    Total Energy =                       -158.4503162437266042
  Basis Set: CC-PVDZ
  Basis Set:
   => B3LYP Composite Functional <=
  Charge       = 0
  Multiplicity = 1
  Basis Set: CC-PVDZ
   => B3LYP Composite Functional <=
  Basis Set:

    Orbital Energies (a.u.)
    -----------------------

    Doubly Occupied:

       1A    -10.180342     2A    -10.180208     3A    -10.175201
       4A    -10.175175     5A     -0.786294     6A     -0.715851
       7A     -0.640582     8A     -0.556373     9A     -0.459660
      10A     -0.444760    11A     -0.404219    12A     -0.388381
      13A     -0.372933    14A     -0.360268    15A     -0.326951
      16A     -0.321246    17A     -0.305133

  @DF-RKS Final Energy:  -158.45031888757450

   => Energetics <=

    Nuclear Repulsion Energy =            131.7448278077041266
    One-Electron Energy =                -472.0053517989824741
    Two-Electron Energy =                 202.3932577186319293
    DFT Exchange-Correlation Energy =     -20.5830526149280928
    Empirical Dispersion Energy =           0.0000000000000000
    PCM Polarization Energy =               0.0000000000000000
    EFP Energy =                            0.0000000000000000
    Total Energy =                       -158.4503188875744968
    Molecular point group: c1
  Basis Set: CC-PVDZ
  Basis Set:
   => B3LYP Composite Functional <=

  -Total Gradient:
     Atom            X                  Y                   Z
    ------   -----------------  -----------------  -----------------
       1        0.000007494442     0.000000211501     0.000001134993
       2       -0.000003820348     0.000012438443    -0.000000063004
       3        0.000024239922     0.000003056741     0.000013186802
       4        0.000490088851     0.000348784808    -0.002287831979
       5        0.000035395904     0.000024593878    -0.000020784733
       6        0.000001847373     0.000015717997     0.000019215774
       7       -0.001115148400    -0.000799278051     0.004253471654
       8        0.000020482712    -0.000003470140    -0.000010470136
       9        0.000020358628    -0.000003323265     0.000040729930
      10        0.001393012483     0.000904095853    -0.004149725896
      11        0.000004316416    -0.000013272350    -0.000000072655
      12        0.000005563566     0.000003981767     0.000005561119
      13        0.000022779246     0.000014456072     0.000003667398
      14       -0.000858959492    -0.000489973662     0.002149867949

  **** Optimization is complete! (in 8 steps) ****
    Final optimized geometry and variables:
    Molecular point group: c1

    Geometry (in Angstrom), charge = 0, multiplicity = 1:

    H           -1.793298036768     0.537061687107     0.694831345647
    H           -1.464909156578     2.173286494266     0.090099184472
    H           -1.428336650645     0.792487479133    -1.025970735231
    C           -1.168188471607     1.115922042217    -0.005645565178
    H            0.876301700497     1.610807854788    -0.416902022946
    H            0.544332077392     1.360377156854     1.287813759009
    C            0.329096212763     0.955553372731     0.284226065212
    H            1.857991019143    -0.451889408885    -0.385982042320
    H            1.193792019102    -0.827989670391     1.194012110359
    C            0.912620841994    -0.485983881245     0.181914497301
    H            0.515864246285    -2.532183251860    -0.446349192887
    H           -0.277468525972    -1.320163468169    -1.472207618084
    H           -0.929759587544    -1.684209164963     0.140728017968
    C            0.002519449382    -1.556733725792    -0.431946069400

*** Psi4 exiting successfully. Buy a developer a beer!
