                               Psi4 1.1 release

  ==> Input File <==

--------------------------------------------------------------------------

memory 5 Gb

molecule phepyrFOH_neutral {
  symmetry C1
  0 1
  C      1.885   -1.036   -0.112
  C      0.807   -0.463   0.561
  C      3.814   -3.038   -1.201
  C      5.339   -1.983   0.332
  C      1.800   -1.079   2.676
  C      4.917   -3.581   -1.840
  C      6.373   -2.574   -0.375
  C      2.921   -1.631   0.608
  C      4.038   -2.225   -0.095
  C      0.764   -0.484   1.955
  C      2.878   -1.652   2.002
  N      6.195   -3.369   -1.454
  O      -0.289   0.076   2.612
  F      3.866   -2.220   2.709
  H      1.904   -1.012   -1.199
  H      0.002   -0.002   -0.006
  H      2.813   -3.248   -1.564
  H      5.552   -1.355   1.191
  H      1.772   -1.099   3.762
  H      4.796   -4.220   -2.708
  H      7.406   -2.418   -0.082
  H      -0.175   -0.018   3.571
  units Angstrom
}

dih_string = "1 8 9 3 315"
set optking fixed_dihedral = $dih_string

optimize('MP2/aug-cc-PVTZ')
--------------------------------------------------------------------------

    Molecular point group: c1
  Charge       = 0
  Multiplicity = 1
  Basis Set: AUG-CC-PVTZ
    Blend: AUG-CC-PVTZ
  Basis Set: (AUG-CC-PVTZ AUX)
    Blend: AUG-CC-PVTZ-JKFIT
  @DF-RHF Final Energy:  -650.17339148801057
    Total Energy =                       -650.1733914880105658
  Basis Set: (AUG-CC-PVTZ AUX)
    Blend: AUG-CC-PVTZ-RI
    Molecular point group: c1
  Basis Set: AUG-CC-PVTZ
    Blend: AUG-CC-PVTZ
  Basis Set: (AUG-CC-PVTZ AUX)
    Blend: AUG-CC-PVTZ-JKFIT
  Basis Set: (AUG-CC-PVTZ AUX)
    Blend: AUG-CC-PVTZ-JKFIT
	 Reference Energy          =    -650.1733914880105658 [Eh]
	 Singles Energy            =      -0.0000000000000011 [Eh]
	 Same-Spin Energy          =      -0.6780244598232393 [Eh]
	 Opposite-Spin Energy      =      -2.0199821511618605 [Eh]
	 Correlation Energy        =      -2.6980066109851006 [Eh]
	 Total Energy              =    -652.8713980989956553 [Eh]
	 SCS Total Energy          =    -652.8233782226792528 [Eh]
  @DF-RHF Final Energy:  -650.17976624250696
    Total Energy =                       -650.1797662425069575
  @DF-RHF Final Energy:  -650.18182176880225
    Total Energy =                       -650.1818217688021377
  @DF-RHF Final Energy:  -650.18193915775510
    Total Energy =                       -650.1819391577550959
  @DF-RHF Final Energy:  -650.18191755034854
    Total Energy =                       -650.1819175503485440
  @DF-RHF Final Energy:  -650.18195015066533
    Total Energy =                       -650.1819501506652159
  Charge       = 0
  Multiplicity = 1
  Basis Set: AUG-CC-PVTZ
    Blend: AUG-CC-PVTZ
  Basis Set: (AUG-CC-PVTZ AUX)
    Blend: AUG-CC-PVTZ-JKFIT

    Orbital Energies (a.u.)
    -----------------------

    Doubly Occupied:

       1A    -26.323233     2A    -20.611606     3A    -15.561768
       4A    -11.347535     5A    -11.327698     6A    -11.271755
       7A    -11.270734     8A    -11.268101     9A    -11.263266
      10A    -11.254723    11A    -11.251660    12A    -11.241746
      13A    -11.237961    14A    -11.236174    15A     -1.641877
      16A     -1.429471    17A     -1.258565    18A     -1.186077
      19A     -1.112547    20A     -1.045017    21A     -1.033881
      22A     -1.024672    23A     -0.894505    24A     -0.879278
      25A     -0.854503    26A     -0.828690    27A     -0.774606
      28A     -0.747910    29A     -0.726636    30A     -0.709836
      31A     -0.695718    32A     -0.666556    33A     -0.662563
      34A     -0.640922    35A     -0.636199    36A     -0.617555
      37A     -0.612083    38A     -0.596108    39A     -0.581745
      40A     -0.548242    41A     -0.543037    42A     -0.536872
      43A     -0.518371    44A     -0.499797    45A     -0.417674
      46A     -0.397987    47A     -0.362362    48A     -0.347680
      49A     -0.321304

  @DF-RHF Final Energy:  -650.18197839465438

   => Energetics <=

    Nuclear Repulsion Energy =            814.3289415057040515
    One-Electron Energy =               -2503.3842264204045023
    Two-Electron Energy =                1038.8733065200460715
    DFT Exchange-Correlation Energy =       0.0000000000000000
    Empirical Dispersion Energy =           0.0000000000000000
    PCM Polarization Energy =               0.0000000000000000
    EFP Energy =                            0.0000000000000000
    Total Energy =                       -650.1819783946543794
  Basis Set: (AUG-CC-PVTZ AUX)
    Blend: AUG-CC-PVTZ-RI
    Molecular point group: c1
  Basis Set: AUG-CC-PVTZ
    Blend: AUG-CC-PVTZ
  Basis Set: (AUG-CC-PVTZ AUX)
    Blend: AUG-CC-PVTZ-JKFIT
  Basis Set: (AUG-CC-PVTZ AUX)
    Blend: AUG-CC-PVTZ-JKFIT
	 Reference Energy          =    -650.1819783946543794 [Eh]
	 Singles Energy            =      -0.0000000000000001 [Eh]
	 Same-Spin Energy          =      -0.6768071816108119 [Eh]
	 Opposite-Spin Energy      =      -2.0170395573013007 [Eh]
	 Correlation Energy        =      -2.6938467389121126 [Eh]
	 Total Energy              =    -652.8758251335665364 [Eh]

	 ================> DF-SCS-MP2 Energies <==================
	-----------------------------------------------------------
	 SCS Same-Spin Scale       =       0.3333333333333333 [-]
	 SCS Opposite-Spin Scale   =       1.2000000000000000 [-]
	 SCS Same-Spin Energy      =      -0.2256023938702706 [Eh]
	 SCS Opposite-Spin Energy  =      -2.4204474687615609 [Eh]
	 SCS Correlation Energy    =      -2.6460498626318314 [Eh]
	 SCS Total Energy          =    -652.8280282572861779 [Eh]
	-----------------------------------------------------------

  -Total Gradient:
     Atom            X                  Y                   Z
    ------   -----------------  -----------------  -----------------
       1        0.000494070364     0.000990852931     0.000048224231
       2        0.000009373930    -0.000046773612    -0.000033495674
       3       -0.000046201183    -0.000866295141     0.000619050840
       4       -0.000010714746    -0.000028847361     0.000041499251
       5       -0.000006953924     0.000018860676     0.000036837358
       6       -0.000001150639    -0.000049563603     0.000043055373
       7       -0.000010003595     0.000014716591    -0.000010947769
       8       -0.000758757693    -0.001918604460     0.000219684572
       9        0.000318586122     0.001839860766    -0.000916483716
      10        0.000036636484     0.000031490477     0.000006762593
      11       -0.000116969270    -0.000020129712    -0.000057682031
      12        0.000006988658     0.000014973685    -0.000016628264
      13       -0.000013928856    -0.000000842077    -0.000003641043
      14        0.000081093008    -0.000001944069     0.000025068439
      15        0.000008958346     0.000009277246    -0.000002402994
      16       -0.000006740812     0.000011817539     0.000012460048
      17        0.000000781688    -0.000003893219     0.000004057725
      18        0.000004409232     0.000003931576    -0.000012848819
      19        0.000010010769    -0.000006705473    -0.000001082428
      20       -0.000003690844     0.000012989986    -0.000009978684
      21        0.000001774135    -0.000003586061     0.000006492812
      22        0.000002428819    -0.000001586683     0.000001998193

  **** Optimization is complete! (in 7 steps) ****
    Final optimized geometry and variables:
    Molecular point group: c1

    Geometry (in Angstrom), charge = 0, multiplicity = 1:

    C           -1.327069807995     0.747816706822    -0.751079624553
    C           -2.403727165399     1.322411439194    -0.102470036651
    C            0.648755089297    -1.253825375405    -1.882315453970
    C            2.174313551747    -0.228246151144    -0.381183416652
    C           -1.426264133035     0.722281439149     2.006762352848
    C            1.739083190538    -1.784304442276    -2.552950526028
    C            3.200127366673    -0.802423829905    -1.114602273902
    C           -0.275087049644     0.146558385492    -0.058242344359
    C            0.855960192960    -0.445519329434    -0.768882453578
    C           -2.454668530792     1.309092325963     1.284453392546
    C           -0.364715985335     0.163089608287     1.325823503196
    N            3.005379990282    -1.571544279640    -2.188638417856
    O           -3.532697717699     1.886310044924     1.878853591968
    F            0.607088518518    -0.413856827379     2.058226214914
    H           -1.281048781667     0.776376629948    -1.829494743450
    H           -3.203304626450     1.790336576813    -0.653673246750
    H           -0.353905008458    -1.477733988023    -2.214590515645
    H            2.400052134250     0.389529871265     0.473248999882
    H           -1.434989418085     0.686137837505     3.085487873522
    H            1.589316511577    -2.414229945580    -3.418681917994
    H            4.228733221559    -0.635130536348    -0.827635423354
    H           -3.446655528588     1.811989885057     2.834096492898

*** Psi4 exiting successfully. Buy a developer a beer!
