                              Psi4 1.0.0 Driver

  ==> Input File <==

--------------------------------------------------------------------------

memory 1000 mb

molecule butane {
  symmetry C1
  0 1
  H      1.604   0.760   -8.260
  H      1.745   2.388   -8.880
  H      2.043   1.024   -9.930
  C      2.142   1.395   -8.932
  H      4.169   2.051   -9.210
  H      3.731   1.788   -7.539
  C      3.631   1.416   -8.537
  H      3.403   -0.709   -8.750
  H      4.882   -0.082   -9.436
  C      4.203   -0.012   -8.612
  H      5.345   -1.329   -7.357
  H      4.270   -0.267   -6.480
  H      5.748   0.360   -7.166
  C      4.948   -0.337   -7.305
  units Angstrom
}

dih_string = "4 7 10 14 230"
set optking fixed_dihedral = $dih_string

optimize('MP2/6-31G(d)')
--------------------------------------------------------------------------

    Molecular point group: c1
  Charge       = 0
  Multiplicity = 1
  Basis Set: 6-31G(D)
  Basis Set:
  @DF-RHF Final Energy:  -157.28833160906748
    Total Energy =                       -157.2883316090673986
  Basis Set:
    Molecular point group: c1
  Basis Set: 6-31G(D)
  Basis Set:
  Basis Set:
	 Reference Energy          =    -157.2883316090674839 [Eh]
	 Singles Energy            =      -0.0000000000000000 [Eh]
	 Same-Spin Energy          =      -0.1244183259549213 [Eh]
	 Opposite-Spin Energy      =      -0.4204117421589491 [Eh]
	 Correlation Energy        =      -0.5448300681138704 [Eh]
	 Total Energy              =    -157.8331616771813515 [Eh]
	 SCS Total Energy          =    -157.8342984749765208 [Eh]
  Basis Set: 6-31G(D)
  Basis Set:
  @DF-RHF Final Energy:  -157.29132104669793
    Total Energy =                       -157.2913210466979876
  Basis Set:
  Basis Set: 6-31G(D)
  Basis Set:
  @DF-RHF Final Energy:  -157.29219503149309
    Total Energy =                       -157.2921950314929802
  @DF-RHF Final Energy:  -157.29248661093146
    Total Energy =                       -157.2924866109314337
  @DF-RHF Final Energy:  -157.29250818000688
    Total Energy =                       -157.2925081800071894
  @DF-RHF Final Energy:  -157.29252286750642
    Total Energy =                       -157.2925228675063067
	 Singles Energy            =      -0.0000000000000000 [Eh]
	 Same-Spin Energy          =      -0.1242896624927899 [Eh]
	 Opposite-Spin Energy      =      -0.4223946835700088 [Eh]
	 Correlation Energy        =      -0.5466843460627987 [Eh]
	 Total Energy              =    -157.8392072135692104 [Eh]
	 SCS Total Energy          =    -157.8408263752880316 [Eh]
  Charge       = 0
  Multiplicity = 1
  Basis Set: 6-31G(D)
  Basis Set:

    Orbital Energies (a.u.)
    -----------------------

    Doubly Occupied:

       1A    -11.215499     2A    -11.214938     3A    -11.210484
       4A    -11.210478     5A     -1.067831     6A     -0.979298
       7A     -0.859582     8A     -0.786362     9A     -0.631158
      10A     -0.592436    11A     -0.580742    12A     -0.554375
      13A     -0.509506    14A     -0.504947    15A     -0.465022
      16A     -0.455589    17A     -0.454066

  @DF-RHF Final Energy:  -157.29252330365793

   => Energetics <=

    Nuclear Repulsion Energy =            130.9129429967158273
    One-Electron Energy =                -469.8263071316350192
    Two-Electron Energy =                 181.6208408312614324
    DFT Exchange-Correlation Energy =       0.0000000000000000
    Empirical Dispersion Energy =           0.0000000000000000
    PCM Polarization Energy =               0.0000000000000000
    EFP Energy =                            0.0000000000000000
    Total Energy =                       -157.2925233036577879
  Basis Set:
    Molecular point group: c1
  Basis Set: 6-31G(D)
  Basis Set:
  Basis Set:
	 Reference Energy          =    -157.2925233036579300 [Eh]
	 Singles Energy            =      -0.0000000000000000 [Eh]
	 Same-Spin Energy          =      -0.1242884244578096 [Eh]
	 Opposite-Spin Energy      =      -0.4223955275027012 [Eh]
	 Correlation Energy        =      -0.5466839519605108 [Eh]
	 Total Energy              =    -157.8392072556184473 [Eh]

	 ================> DF-SCS-MP2 Energies <==================
	-----------------------------------------------------------
	 SCS Same-Spin Scale       =       0.3333333333333333 [-]
	 SCS Opposite-Spin Scale   =       1.2000000000000000 [-]
	 SCS Same-Spin Energy      =      -0.0414294748192699 [Eh]
	 SCS Opposite-Spin Energy  =      -0.5068746330032413 [Eh]
	 SCS Correlation Energy    =      -0.5483041078225112 [Eh]
	 SCS Total Energy          =    -157.8408274114804328 [Eh]
	-----------------------------------------------------------

  -Total Gradient:
     Atom            X                  Y                   Z
    ------   -----------------  -----------------  -----------------
       1       -0.000000342415     0.000003821236    -0.000006385839
       2        0.000000271635    -0.000007323536    -0.000001070504
       3        0.000003174449     0.000001397553     0.000003442595
       4       -0.000470116130    -0.000232215773     0.001771421550
       5       -0.000007148033    -0.000007962979    -0.000015689359
       6       -0.000032968848     0.000017496569    -0.000005128822
       7        0.000112472199     0.000070421153    -0.002124147758
       8        0.000019608776    -0.000023523388     0.000023255343
       9        0.000012821861     0.000010022485     0.000007256350
      10        0.001912751859     0.000872938271    -0.000363129221
      11       -0.000001904060     0.000006822470     0.000002658742
      12        0.000007260526    -0.000000734331    -0.000001617420
      13       -0.000003513627    -0.000001449867    -0.000003569254
      14       -0.001552368192    -0.000709709863     0.000712703597

  **** Optimization is complete! (in 7 steps) ****
    Final optimized geometry and variables:
    Molecular point group: c1

    Geometry (in Angstrom), charge = 0, multiplicity = 1:

    H           -2.182978386950     0.167168430156     0.061573919012
    H           -2.020181998264     1.803370215383    -0.592111105199
    H           -1.729151468586     0.401239854999    -1.629833002497
    C           -1.598094486247     0.794616856843    -0.617308315826
    H            0.437455934116     1.466308323231    -0.866822308390
    H           -0.040101874564     1.206334463052     0.795492844793
    C           -0.126556594472     0.790146594600    -0.215460588705
    H           -0.294225225524    -1.362053823589    -0.384533131267
    H            1.165228851487    -0.719787966948    -1.103162967073
    C            0.497794297547    -0.617223177002    -0.240847234815
    H            1.688474871366    -1.957879017925     0.999805051494
    H            0.584043376035    -0.911925771689     1.903781858211
    H            2.067224426131    -0.243797137107     1.214298192036
    C            1.254085821514    -0.954856592291     1.040148844089

*** Psi4 exiting successfully. Buy a developer a beer!
