                               Psi4 1.1 release

  ==> Input File <==

--------------------------------------------------------------------------

memory 5000 mb

molecule butane {
  symmetry C1
  0 1
  H      1.760   0.401   -8.828
  H      1.594   2.057   -8.293
  H      2.038   1.713   -9.948
  C      2.142   1.395   -8.932
  H      4.169   2.051   -9.210
  H      3.731   1.788   -7.539
  C      3.631   1.416   -8.537
  H      3.665   -0.647   -7.940
  H      4.104   -0.384   -9.610
  C      4.203   -0.012   -8.612
  H      6.088   -0.983   -8.270
  H      5.791   0.381   -7.220
  H      6.230   0.644   -8.890
  C      5.691   0.009   -8.218
  units Angstrom
}

dih_string = "10 7 4 3 260"
set optking fixed_dihedral = $dih_string

optimize('MP2/aug-cc-pvtz')
--------------------------------------------------------------------------

    Molecular point group: c1
  Charge       = 0
  Multiplicity = 1
  Basis Set: AUG-CC-PVTZ
    Blend: AUG-CC-PVTZ
  Basis Set: (AUG-CC-PVTZ AUX)
    Blend: AUG-CC-PVTZ-JKFIT
  @DF-RHF Final Energy:  -157.34862116995242
    Total Energy =                       -157.3486211699524233
  Basis Set: (AUG-CC-PVTZ AUX)
    Blend: AUG-CC-PVTZ-RI
    Molecular point group: c1
  Basis Set: AUG-CC-PVTZ
    Blend: AUG-CC-PVTZ
  Basis Set: (AUG-CC-PVTZ AUX)
    Blend: AUG-CC-PVTZ-JKFIT
  Basis Set: (AUG-CC-PVTZ AUX)
    Blend: AUG-CC-PVTZ-JKFIT
	 Reference Energy          =    -157.3486211699524233 [Eh]
	 Singles Energy            =      -0.0000000000000001 [Eh]
	 Same-Spin Energy          =      -0.1654608807311523 [Eh]
	 Opposite-Spin Energy      =      -0.6393278376910109 [Eh]
	 Correlation Energy        =      -0.8047887184221633 [Eh]
	 Total Energy              =    -158.1534098883745969 [Eh]
	 SCS Total Energy          =    -158.1709682020920127 [Eh]
  @DF-RHF Final Energy:  -157.35144988123966
    Total Energy =                       -157.3514498812396596
  @DF-RHF Final Energy:  -157.35233659239353
    Total Energy =                       -157.3523365923935273
  @DF-RHF Final Energy:  -157.35265120935071
    Total Energy =                       -157.3526512093507108
  @DF-RHF Final Energy:  -157.35266439274415
    Total Energy =                       -157.3526643927441455
  Charge       = 0
  Multiplicity = 1
  Basis Set: AUG-CC-PVTZ
    Blend: AUG-CC-PVTZ
  Basis Set: (AUG-CC-PVTZ AUX)
    Blend: AUG-CC-PVTZ-JKFIT

    Orbital Energies (a.u.)
    -----------------------

    Doubly Occupied:

       1A    -11.211566     2A    -11.210830     3A    -11.205887
       4A    -11.205620     5A     -1.073025     6A     -0.980812
       7A     -0.861834     8A     -0.788525     9A     -0.639244
      10A     -0.584380    11A     -0.577909    12A     -0.568692
      13A     -0.512686    14A     -0.496097    15A     -0.470487
      16A     -0.458733    17A     -0.454850

  @DF-RHF Final Energy:  -157.35267171362005

   => Energetics <=

    Nuclear Repulsion Energy =            131.3361698849772665
    One-Electron Energy =                -470.7753307018275564
    Two-Electron Energy =                 182.0864891032302353
    DFT Exchange-Correlation Energy =       0.0000000000000000
    Empirical Dispersion Energy =           0.0000000000000000
    PCM Polarization Energy =               0.0000000000000000
    EFP Energy =                            0.0000000000000000
    Total Energy =                       -157.3526717136200546
  Basis Set: (AUG-CC-PVTZ AUX)
    Blend: AUG-CC-PVTZ-RI
    Molecular point group: c1
  Basis Set: AUG-CC-PVTZ
    Blend: AUG-CC-PVTZ
  Basis Set: (AUG-CC-PVTZ AUX)
    Blend: AUG-CC-PVTZ-JKFIT
  Basis Set: (AUG-CC-PVTZ AUX)
    Blend: AUG-CC-PVTZ-JKFIT
	 Reference Energy          =    -157.3526717136200546 [Eh]
	 Singles Energy            =      -0.0000000000000000 [Eh]
	 Same-Spin Energy          =      -0.1654398078584586 [Eh]
	 Opposite-Spin Energy      =      -0.6397083002627029 [Eh]
	 Correlation Energy        =      -0.8051481081211616 [Eh]
	 Total Energy              =    -158.1578198217412137 [Eh]

	 ================> DF-SCS-MP2 Energies <==================
	-----------------------------------------------------------
	 SCS Same-Spin Scale       =       0.3333333333333333 [-]
	 SCS Opposite-Spin Scale   =       1.2000000000000000 [-]
	 SCS Same-Spin Energy      =      -0.0551466026194862 [Eh]
	 SCS Opposite-Spin Energy  =      -0.7676499603152435 [Eh]
	 SCS Correlation Energy    =      -0.8227965629347297 [Eh]
	 SCS Total Energy          =    -158.1754682765547955 [Eh]
	-----------------------------------------------------------

  -Total Gradient:
     Atom            X                  Y                   Z
    ------   -----------------  -----------------  -----------------
       1       -0.000015164238    -0.000013114998    -0.000005955353
       2       -0.000000213445    -0.000025461117    -0.000005879647
       3       -0.000244698895     0.002956915456     0.000977179586
       4        0.000095990513    -0.003840175078    -0.000355071153
       5        0.000023989052     0.000004303531    -0.000002561316
       6       -0.000001033317     0.000013587833    -0.000027788503
       7        0.000730182833     0.001264225540    -0.002737884791
       8        0.000010227659    -0.000007027735    -0.000019418915
       9       -0.000016320880     0.000007627951    -0.000002891392
      10       -0.000570644301    -0.000347357095     0.002151038518
      11        0.000008620410     0.000001294441     0.000008148663
      12        0.000014897948     0.000002495841    -0.000002233339
      13       -0.000007366032     0.000000405724    -0.000003460801
      14       -0.000028467309    -0.000017720294     0.000026778445

  **** Optimization is complete! (in 6 steps) ****
    Final optimized geometry and variables:
    Molecular point group: c1

    Geometry (in Angstrom), charge = 0, multiplicity = 1:

    H           -2.221110522647    -0.297015906542    -0.262311774117
    H           -2.363160389426     1.375787833361     0.250098794173
    H           -1.913799831329     1.018867583166    -1.396075229467
    C           -1.783495706093     0.693372220706    -0.367102344886
    H            0.258877307606     1.367778078367    -0.598551989197
    H           -0.203789965764     1.063860232935     1.054925583151
    C           -0.309855918195     0.688605475418     0.036491625768
    H           -0.238166325970    -1.352402973787     0.652254281760
    H            0.185646340390    -1.103711459257    -1.025373582708
    C            0.312201426279    -0.694392872502    -0.021434551657
    H            2.207989363299    -1.689997813644     0.319410045694
    H            1.922661560621    -0.296242872802     1.355927194874
    H            2.350575098493    -0.061365848095    -0.332863261828
    C            1.782349288472    -0.689731226697     0.350580559827

*** Psi4 exiting successfully. Buy a developer a beer!
