                               Psi4 1.1 release

  ==> Input File <==

--------------------------------------------------------------------------

memory 5 Gb

molecule phepyrOH_neutral {
  symmetry C1
  0 1
  C      1.885   -1.036   -0.112
  C      2.878   -1.652   2.002
  C      0.807   -0.463   0.561
  C      1.800   -1.079   2.676
  C      4.717   -3.304   0.467
  C      4.441   -1.721   -1.322
  C      5.781   -3.838   -0.242
  C      5.517   -2.326   -1.951
  C      2.921   -1.631   0.608
  C      4.040   -2.225   -0.090
  C      0.764   -0.484   1.955
  N      6.200   -3.375   -1.441
  O      -0.288   0.076   2.612
  H      1.904   -1.012   -1.199
  H      3.678   -2.112   2.578
  H      0.003   -0.001   -0.006
  H      1.772   -1.098   3.762
  H      4.433   -3.726   1.426
  H      3.936   -0.880   -1.788
  H      6.341   -4.682   0.149
  H      5.869   -1.970   -2.913
  H      -0.175   -0.018   3.571
  units Angstrom
}

dih_string = "1 9 10 5 210"
set optking fixed_dihedral = $dih_string

optimize('MP2/aug-cc-PVTZ')
--------------------------------------------------------------------------

    Molecular point group: c1
  Charge       = 0
  Multiplicity = 1
  Basis Set: AUG-CC-PVTZ
    Blend: AUG-CC-PVTZ
  Basis Set: (AUG-CC-PVTZ AUX)
    Blend: AUG-CC-PVTZ-JKFIT
  @DF-RHF Final Energy:  -551.28545896591777
    Total Energy =                       -551.2854589659177691
  Basis Set: (AUG-CC-PVTZ AUX)
    Blend: AUG-CC-PVTZ-RI
    Molecular point group: c1
  Basis Set: AUG-CC-PVTZ
    Blend: AUG-CC-PVTZ
  Basis Set: (AUG-CC-PVTZ AUX)
    Blend: AUG-CC-PVTZ-JKFIT
  Basis Set: (AUG-CC-PVTZ AUX)
    Blend: AUG-CC-PVTZ-JKFIT
	 Reference Energy          =    -551.2854589659177691 [Eh]
	 Singles Energy            =      -0.0000000000000001 [Eh]
	 Same-Spin Energy          =      -0.6052582543312649 [Eh]
	 Opposite-Spin Energy      =      -1.8311201128389900 [Eh]
	 Correlation Energy        =      -2.4363783671702550 [Eh]
	 Total Energy              =    -553.7218373330880468 [Eh]
	 SCS Total Energy          =    -553.6845558527683124 [Eh]
  @DF-RHF Final Energy:  -551.29153794814533
    Total Energy =                       -551.2915379481453328
  @DF-RHF Final Energy:  -551.29296494250900
    Total Energy =                       -551.2929649425090020
  @DF-RHF Final Energy:  -551.29294961324194
    Total Energy =                       -551.2929496132419445
  @DF-RHF Final Energy:  -551.29292858731549
    Total Energy =                       -551.2929285873154868
  Charge       = 0
  Multiplicity = 1
  Basis Set: AUG-CC-PVTZ
    Blend: AUG-CC-PVTZ
  Basis Set: (AUG-CC-PVTZ AUX)
    Blend: AUG-CC-PVTZ-JKFIT

    Orbital Energies (a.u.)
    -----------------------

    Doubly Occupied:

       1A    -20.602759     2A    -15.559192     3A    -11.314154
       4A    -11.270846     5A    -11.270754     6A    -11.265115
       7A    -11.253581     8A    -11.251304     9A    -11.246475
      10A    -11.244184    11A    -11.237726    12A    -11.234731
      13A    -11.234587    14A     -1.420024    15A     -1.257012
      16A     -1.175782    17A     -1.105432    18A     -1.039633
      19A     -1.029882    20A     -1.013319    21A     -0.882638
      22A     -0.873177    23A     -0.843234    24A     -0.813137
      25A     -0.750270    26A     -0.726347    27A     -0.685868
      28A     -0.662859    29A     -0.654604    30A     -0.635620
      31A     -0.613868    32A     -0.607414    33A     -0.604345
      34A     -0.592147    35A     -0.581140    36A     -0.545330
      37A     -0.534630    38A     -0.524087    39A     -0.502184
      40A     -0.495665    41A     -0.416429    42A     -0.397834
      43A     -0.357054    44A     -0.347299    45A     -0.308759

  @DF-RHF Final Energy:  -551.29293114582993

   => Energetics <=

    Nuclear Repulsion Energy =            697.8507727809140988
    One-Electron Energy =               -2132.3225457216944960
    Two-Electron Energy =                 883.1788417949503582
    DFT Exchange-Correlation Energy =       0.0000000000000000
    Empirical Dispersion Energy =           0.0000000000000000
    PCM Polarization Energy =               0.0000000000000000
    EFP Energy =                            0.0000000000000000
    Total Energy =                       -551.2929311458299253
  Basis Set: (AUG-CC-PVTZ AUX)
    Blend: AUG-CC-PVTZ-RI
    Molecular point group: c1
  Basis Set: AUG-CC-PVTZ
    Blend: AUG-CC-PVTZ
  Basis Set: (AUG-CC-PVTZ AUX)
    Blend: AUG-CC-PVTZ-JKFIT
  Basis Set: (AUG-CC-PVTZ AUX)
    Blend: AUG-CC-PVTZ-JKFIT
	 Reference Energy          =    -551.2929311458299253 [Eh]
	 Singles Energy            =      -0.0000000000000001 [Eh]
	 Same-Spin Energy          =      -0.6041829432650340 [Eh]
	 Opposite-Spin Energy      =      -1.8285683309757710 [Eh]
	 Correlation Energy        =      -2.4327512742408048 [Eh]
	 Total Energy              =    -553.7256824200707115 [Eh]

	 ================> DF-SCS-MP2 Energies <==================
	-----------------------------------------------------------
	 SCS Same-Spin Scale       =       0.3333333333333333 [-]
	 SCS Opposite-Spin Scale   =       1.2000000000000000 [-]
	 SCS Same-Spin Energy      =      -0.2013943144216780 [Eh]
	 SCS Opposite-Spin Energy  =      -2.1942819971709251 [Eh]
	 SCS Correlation Energy    =      -2.3956763115926032 [Eh]
	 SCS Total Energy          =    -553.6886074574225631 [Eh]
	-----------------------------------------------------------

  -Total Gradient:
     Atom            X                  Y                   Z
    ------   -----------------  -----------------  -----------------
       1        0.000493811264     0.000793778907     0.000062643793
       2       -0.000010394002     0.000018845074     0.000022892047
       3       -0.000048959246     0.000010942034     0.000051951628
       4        0.000046204836    -0.000018681670    -0.000031569488
       5        0.000607391473     0.000600143486     0.000443013535
       6       -0.000001769941    -0.000013658348    -0.000000355856
       7       -0.000034397298    -0.000058602274    -0.000054794718
       8        0.000070278943     0.000041054701     0.000034468327
       9       -0.000386962735    -0.000922453282     0.000142923640
      10       -0.000684408141    -0.000475996009    -0.000645698307
      11       -0.000013365334     0.000012920809    -0.000010924224
      12       -0.000031535854     0.000013748626     0.000018599532
      13        0.000000954008    -0.000003075184    -0.000000263030
      14       -0.000006897185     0.000007871283     0.000002706884
      15       -0.000006963795    -0.000005759461    -0.000004129556
      16        0.000023682984    -0.000005471228    -0.000011626965
      17       -0.000007003645     0.000000597906    -0.000006128611
      18        0.000000684811     0.000007520325    -0.000000692331
      19       -0.000006113122    -0.000010422282     0.000000266183
      20        0.000014647942     0.000024380449     0.000022004394
      21       -0.000026283483    -0.000014360868    -0.000014071470
      22        0.000007397505    -0.000003322997    -0.000021215393

  **** Optimization is complete! (in 6 steps) ****
    Final optimized geometry and variables:
    Molecular point group: c1

    Geometry (in Angstrom), charge = 0, multiplicity = 1:

    C           -1.284024385596     0.707039574484    -0.552486143098
    C           -0.283621251655     0.104272846138     1.532368574987
    C           -2.347985266095     1.285328399662     0.115607957193
    C           -1.343713793771     0.683502049671     2.210445008896
    C            1.598180127521    -1.578392145313    -0.054196116286
    C            1.335284607136     0.003682278571    -1.795499464271
    C            2.669795906230    -2.102982877887    -0.758181164166
    C            2.416179568337    -0.587244717788    -2.429475645095
    C           -0.233804035837     0.103178721488     0.139907222536
    C            0.894706579119    -0.493831860899    -0.571779381682
    C           -2.381587987971     1.274848137766     1.503022121858
    N            3.088939321263    -1.628224399104    -1.933454345536
    O           -3.452648167793     1.859738930840     2.106806615130
    H           -1.286680286475     0.698564588637    -1.632111717260
    H            0.530469287509    -0.322993889824     2.098252998990
    H           -3.164124134334     1.740190249161    -0.423718079412
    H           -1.358010619449     0.683289010688     3.291623664507
    H            1.298521837479    -2.033364676255     0.877668870605
    H            0.859185582726     0.862898451916    -2.242791524419
    H            3.214515800913    -2.948874117508    -0.362399691742
    H            2.763407345747    -0.201588771358    -3.377955113011
    H           -3.356135358314     1.780829333947     3.060659043792

*** Psi4 exiting successfully. Buy a developer a beer!
