                               Psi4 1.1 release

  ==> Input File <==

--------------------------------------------------------------------------

memory 5 Gb

molecule phepyrOH_zwitterion {
  symmetry C1
  0 1
  C      1.885   -1.036   -0.112
  C      2.878   -1.652   2.002
  C      0.807   -0.463   0.561
  C      1.800   -1.079   2.676
  C      4.906   -3.082   0.584
  C      4.252   -1.943   -1.436
  C      5.971   -3.637   -0.111
  C      5.333   -2.528   -2.080
  C      2.921   -1.631   0.608
  C      4.040   -2.226   -0.090
  C      0.764   -0.484   1.955
  N      6.152   -3.348   -1.407
  O      -0.227   0.042   2.574
  H      1.904   -1.011   -1.199
  H      3.678   -2.112   2.577
  H      0.011   -0.006   -0.025
  H      1.791   -1.108   3.764
  H      4.765   -3.320   1.634
  H      3.592   -1.279   -1.987
  H      6.692   -4.312   0.330
  H      5.574   -2.366   -3.121
  H      6.941   -3.766   -1.898
  units Angstrom
}

dih_string = "1 9 10 5 195"
set optking fixed_dihedral = $dih_string

optimize('MP2/aug-cc-PVTZ')
--------------------------------------------------------------------------

    Molecular point group: c1
  Charge       = 0
  Multiplicity = 1
  Basis Set: AUG-CC-PVTZ
    Blend: AUG-CC-PVTZ
  Basis Set: (AUG-CC-PVTZ AUX)
    Blend: AUG-CC-PVTZ-JKFIT
  @DF-RHF Final Energy:  -551.21633557275732
    Total Energy =                       -551.2163355727573162
  Basis Set: (AUG-CC-PVTZ AUX)
    Blend: AUG-CC-PVTZ-RI
    Molecular point group: c1
  Basis Set: AUG-CC-PVTZ
    Blend: AUG-CC-PVTZ
  Basis Set: (AUG-CC-PVTZ AUX)
    Blend: AUG-CC-PVTZ-JKFIT
  Basis Set: (AUG-CC-PVTZ AUX)
    Blend: AUG-CC-PVTZ-JKFIT
	 Reference Energy          =    -551.2163355727573162 [Eh]
	 Singles Energy            =      -0.0000000000000002 [Eh]
	 Same-Spin Energy          =      -0.6065001943795563 [Eh]
	 Opposite-Spin Energy      =      -1.8410779724697688 [Eh]
	 Correlation Energy        =      -2.4475781668493255 [Eh]
	 Total Energy              =    -553.6639137396066417 [Eh]
	 SCS Total Energy          =    -553.6277958711808651 [Eh]
  @DF-RHF Final Energy:  -551.22879563807237
    Total Energy =                       -551.2287956380723699
  @DF-RHF Final Energy:  -551.23850330998869
    Total Energy =                       -551.2385033099886869
  @DF-RHF Final Energy:  -551.24503379263751
    Total Energy =                       -551.2450337926375141
  @DF-RHF Final Energy:  -551.24794053590313
    Total Energy =                       -551.2479405359031261
  @DF-RHF Final Energy:  -551.24841607544136
    Total Energy =                       -551.2484160754413551
  @DF-RHF Final Energy:  -551.24848944734538
    Total Energy =                       -551.2484894473453778
  @DF-RHF Final Energy:  -551.24847461426850
    Total Energy =                       -551.2484746142685026
  Charge       = 0
  Multiplicity = 1
  Basis Set: AUG-CC-PVTZ
    Blend: AUG-CC-PVTZ
  Basis Set: (AUG-CC-PVTZ AUX)
    Blend: AUG-CC-PVTZ-JKFIT

    Orbital Energies (a.u.)
    -----------------------

    Doubly Occupied:

       1A    -20.480521     2A    -15.660322     3A    -11.329379
       4A    -11.329350     5A    -11.294622     6A    -11.281239
       7A    -11.262097     8A    -11.262004     9A    -11.237679
      10A    -11.237427    11A    -11.224804    12A    -11.203842
      13A    -11.203725    14A     -1.344081    15A     -1.314669
      16A     -1.166416    17A     -1.107007    18A     -1.088797
      19A     -1.013300    20A     -0.996716    21A     -0.906145
      22A     -0.895134    23A     -0.814368    24A     -0.812249
      25A     -0.796629    26A     -0.718406    27A     -0.708626
      28A     -0.682443    29A     -0.655638    30A     -0.625162
      31A     -0.623819    32A     -0.618767    33A     -0.612232
      34A     -0.584934    35A     -0.557142    36A     -0.548386
      37A     -0.527117    38A     -0.522753    39A     -0.485434
      40A     -0.477869    41A     -0.408712    42A     -0.396440
      43A     -0.373314    44A     -0.346159    45A     -0.249299

  @DF-RHF Final Energy:  -551.24847171075407

   => Energetics <=

    Nuclear Repulsion Energy =            698.0614996796784908
    One-Electron Energy =               -2132.6495976271985455
    Two-Electron Energy =                 883.3396262367659801
    DFT Exchange-Correlation Energy =       0.0000000000000000
    Empirical Dispersion Energy =           0.0000000000000000
    PCM Polarization Energy =               0.0000000000000000
    EFP Energy =                            0.0000000000000000
    Total Energy =                       -551.2484717107540746
  Basis Set: (AUG-CC-PVTZ AUX)
    Blend: AUG-CC-PVTZ-RI
    Molecular point group: c1
  Basis Set: AUG-CC-PVTZ
    Blend: AUG-CC-PVTZ
  Basis Set: (AUG-CC-PVTZ AUX)
    Blend: AUG-CC-PVTZ-JKFIT
  Basis Set: (AUG-CC-PVTZ AUX)
    Blend: AUG-CC-PVTZ-JKFIT
	 Reference Energy          =    -551.2484717107540746 [Eh]
	 Singles Energy            =      -0.0000000000000002 [Eh]
	 Same-Spin Energy          =      -0.5989091632014096 [Eh]
	 Opposite-Spin Energy      =      -1.8350182165120099 [Eh]
	 Correlation Energy        =      -2.4339273797134195 [Eh]
	 Total Energy              =    -553.6823990904674702 [Eh]

	 ================> DF-SCS-MP2 Energies <==================
	-----------------------------------------------------------
	 SCS Same-Spin Scale       =       0.3333333333333333 [-]
	 SCS Opposite-Spin Scale   =       1.2000000000000000 [-]
	 SCS Same-Spin Energy      =      -0.1996363877338032 [Eh]
	 SCS Opposite-Spin Energy  =      -2.2020218598144119 [Eh]
	 SCS Correlation Energy    =      -2.4016582475482151 [Eh]
	 SCS Total Energy          =    -553.6501299583022728 [Eh]
	-----------------------------------------------------------

  -Total Gradient:
     Atom            X                  Y                   Z
    ------   -----------------  -----------------  -----------------
       1       -0.001583371458    -0.002772970832    -0.000071310607
       2       -0.000001165336     0.000020142472     0.000039696199
       3       -0.000010461608    -0.000022065328    -0.000020176042
       4       -0.000004392862    -0.000024106545    -0.000011953722
       5       -0.001861419093    -0.002571176524    -0.000799067798
       6        0.000011990606    -0.000024557296    -0.000065671936
       7       -0.000019216285    -0.000029873456     0.000021878863
       8       -0.000016381829     0.000007128254    -0.000006690309
       9        0.001354083377     0.002889356085    -0.000348810871
      10        0.002129277205     0.002494747116     0.001233894675
      11        0.000018749299     0.000098797321     0.000034095910
      12        0.000000854730    -0.000002364234    -0.000010022061
      13       -0.000009892648    -0.000034841740    -0.000006653548
      14       -0.000012096092    -0.000025116575     0.000006405666
      15       -0.000013595293    -0.000015925937    -0.000006025952
      16       -0.000005781855    -0.000014399422    -0.000004508017
      17        0.000002526882    -0.000008499236     0.000002140446
      18       -0.000006211765     0.000018117908    -0.000005371391
      19        0.000004513804     0.000009298739     0.000025547310
      20        0.000004412043    -0.000001204081    -0.000009962445
      21        0.000007167266    -0.000004021548    -0.000000157289
      22        0.000010410906     0.000013534864     0.000002722905

  **** Optimization is complete! (in 9 steps) ****
    Final optimized geometry and variables:
    Molecular point group: c1

    Geometry (in Angstrom), charge = 0, multiplicity = 1:

    C           -1.289480568523     0.805011370958    -0.542550804925
    C           -0.329346276377     0.125935237193     1.579868088962
    C           -2.365899607659     1.324302084319     0.100402009911
    C           -1.387723399422     0.659965211403     2.240447821057
    C            1.784173633491    -1.287260367718     0.121907165989
    C            1.097002455841    -0.213108562119    -1.908949441385
    C            2.804867925467    -1.869305860877    -0.555746445890
    C            2.133701985785    -0.807916987545    -2.550137916499
    C           -0.216859301015     0.182765232332     0.160086063328
    C            0.857325904375    -0.402379496695    -0.512122389100
    C           -2.488370195478     1.298784638798     1.545127966425
    N            2.987426853921    -1.630394452131    -1.882608368465
    O           -3.462200697622     1.782369588247     2.140379873371
    H           -1.270960614571     0.842435435594    -1.621453206006
    H            0.463401924099    -0.321548240721     2.160703619629
    H           -3.180546780225     1.769400024448    -0.451719425166
    H           -1.442153396883     0.629127367130     3.318707096188
    H            1.682811728679    -1.536141143474     1.164126422042
    H            0.468305575619     0.437202194436    -2.492397329954
    H            3.500906724213    -2.547255003836    -0.089751798050
    H            2.332837739938    -0.657977701943    -3.598522097939
    H            3.747815033770    -2.068049821918    -2.371410651475

*** Psi4 exiting successfully. Buy a developer a beer!
