                               Psi4 1.1 release

  ==> Input File <==

--------------------------------------------------------------------------

memory 5 Gb

molecule phepyrOH_anion {
  symmetry C1
  -1 1
  C      1.885   -1.036   -0.112
  C      2.878   -1.652   2.002
  C      0.807   -0.463   0.561
  C      1.800   -1.079   2.676
  C      4.907   -3.081   0.581
  C      4.251   -1.946   -1.435
  C      5.962   -3.626   -0.133
  C      5.336   -2.541   -2.059
  C      2.921   -1.631   0.608
  C      4.040   -2.226   -0.090
  C      0.764   -0.484   1.955
  N      6.200   -3.377   -1.440
  O      -0.227   0.042   2.574
  H      1.904   -1.011   -1.199
  H      3.678   -2.112   2.577
  H      0.011   -0.006   -0.025
  H      1.791   -1.108   3.764
  H      4.773   -3.325   1.630
  H      3.596   -1.283   -1.992
  H      6.665   -4.301   0.344
  H      5.545   -2.354   -3.107
  units Angstrom
}

dih_string = "1 9 10 5 195"
set optking fixed_dihedral = $dih_string

optimize('MP2/aug-cc-PVTZ')
--------------------------------------------------------------------------

    Molecular point group: c1
  Charge       = -1
  Multiplicity = 1
  Basis Set: AUG-CC-PVTZ
    Blend: AUG-CC-PVTZ
  Basis Set: (AUG-CC-PVTZ AUX)
    Blend: AUG-CC-PVTZ-JKFIT
  @DF-RHF Final Energy:  -550.71379744835588
    Total Energy =                       -550.7137974483558764
  Basis Set: (AUG-CC-PVTZ AUX)
    Blend: AUG-CC-PVTZ-RI
    Molecular point group: c1
  Basis Set: AUG-CC-PVTZ
    Blend: AUG-CC-PVTZ
  Basis Set: (AUG-CC-PVTZ AUX)
    Blend: AUG-CC-PVTZ-JKFIT
  Basis Set: (AUG-CC-PVTZ AUX)
    Blend: AUG-CC-PVTZ-JKFIT
	 Reference Energy          =    -550.7137974483558764 [Eh]
	 Singles Energy            =      -0.0000000000000001 [Eh]
	 Same-Spin Energy          =      -0.6143404093812419 [Eh]
	 Opposite-Spin Energy      =      -1.8396693539411209 [Eh]
	 Correlation Energy        =      -2.4540097633223628 [Eh]
	 Total Energy              =    -553.1678072116782232 [Eh]
	 SCS Total Energy          =    -553.1261808095456445 [Eh]
  @DF-RHF Final Energy:  -550.72228549212332
    Total Energy =                       -550.7222854921233193
  @DF-RHF Final Energy:  -550.72751314492223
    Total Energy =                       -550.7275131449222272
  @DF-RHF Final Energy:  -550.72983278209369
    Total Energy =                       -550.7298327820936947
  @DF-RHF Final Energy:  -550.73008344753907
    Total Energy =                       -550.7300834475390729
  @DF-RHF Final Energy:  -550.73007720191424
    Total Energy =                       -550.7300772019142414
  Charge       = -1
  Multiplicity = 1
  Basis Set: AUG-CC-PVTZ
    Blend: AUG-CC-PVTZ
  Basis Set: (AUG-CC-PVTZ AUX)
    Blend: AUG-CC-PVTZ-JKFIT

    Orbital Energies (a.u.)
    -----------------------

    Doubly Occupied:

       1A    -20.324843     2A    -15.440526     3A    -11.159899
       4A    -11.159883     5A    -11.146922     6A    -11.137324
       7A    -11.112090     8A    -11.112068     9A    -11.103529
      10A    -11.103514    11A    -11.078889    12A    -11.065466
      13A    -11.065451    14A     -1.155391    15A     -1.139588
      16A     -1.017169    17A     -0.957861    18A     -0.916358
      19A     -0.871357    20A     -0.840322    21A     -0.741198
      22A     -0.735376    23A     -0.675445    24A     -0.653344
      25A     -0.598032    26A     -0.547553    27A     -0.538590
      28A     -0.511226    29A     -0.485487    30A     -0.483433
      31A     -0.476033    32A     -0.441012    33A     -0.431654
      34A     -0.424983    35A     -0.397369    36A     -0.384904
      37A     -0.378548    38A     -0.347280    39A     -0.324050
      40A     -0.305688    41A     -0.248134    42A     -0.237292
      43A     -0.229929    44A     -0.205085    45A     -0.109211

  @DF-RHF Final Energy:  -550.73007319424050

   => Energetics <=

    Nuclear Repulsion Energy =            682.1396145104240532
    One-Electron Energy =               -2114.1007644726796570
    Two-Electron Energy =                 881.2310767680151002
    DFT Exchange-Correlation Energy =       0.0000000000000000
    Empirical Dispersion Energy =           0.0000000000000000
    PCM Polarization Energy =               0.0000000000000000
    EFP Energy =                            0.0000000000000000
    Total Energy =                       -550.7300731942405037
  Basis Set: (AUG-CC-PVTZ AUX)
    Blend: AUG-CC-PVTZ-RI
    Molecular point group: c1
  Basis Set: AUG-CC-PVTZ
    Blend: AUG-CC-PVTZ
  Basis Set: (AUG-CC-PVTZ AUX)
    Blend: AUG-CC-PVTZ-JKFIT
  Basis Set: (AUG-CC-PVTZ AUX)
    Blend: AUG-CC-PVTZ-JKFIT
	 Reference Energy          =    -550.7300731942405037 [Eh]
	 Singles Energy            =      -0.0000000000000004 [Eh]
	 Same-Spin Energy          =      -0.6122093942730104 [Eh]
	 Opposite-Spin Energy      =      -1.8370233931499431 [Eh]
	 Correlation Energy        =      -2.4492327874229538 [Eh]
	 Total Energy              =    -553.1793059816634468 [Eh]

	 ================> DF-SCS-MP2 Energies <==================
	-----------------------------------------------------------
	 SCS Same-Spin Scale       =       0.3333333333333333 [-]
	 SCS Opposite-Spin Scale   =       1.2000000000000000 [-]
	 SCS Same-Spin Energy      =      -0.2040697980910035 [Eh]
	 SCS Opposite-Spin Energy  =      -2.2044280717799318 [Eh]
	 SCS Correlation Energy    =      -2.4084978698709358 [Eh]
	 SCS Total Energy          =    -553.1385710641114883 [Eh]
	-----------------------------------------------------------

  -Total Gradient:
     Atom            X                  Y                   Z
    ------   -----------------  -----------------  -----------------
       1       -0.000076531339    -0.000192251293    -0.000010126291
       2        0.000030520054     0.000025027721    -0.000014570724
       3        0.000013351764     0.000016719707     0.000004965631
       4       -0.000006273105    -0.000010328622    -0.000006187339
       5       -0.000116458744    -0.000143299895    -0.000036290625
       6        0.000010489437     0.000041053197     0.000009070257
       7        0.000041684069     0.000048366138     0.000002604881
       8       -0.000029071682    -0.000063624871    -0.000015472389
       9        0.000105684497     0.000133276107    -0.000037728031
      10        0.000082559149     0.000112272969     0.000070611492
      11       -0.000058694688     0.000014496249     0.000029159922
      12        0.000003369413     0.000003731547     0.000000590092
      13        0.000022346037    -0.000003467937    -0.000010693204
      14       -0.000014108096     0.000015100482    -0.000003353848
      15       -0.000007776034     0.000005110179     0.000018244777
      16        0.000007871676     0.000006478812    -0.000013048294
      17        0.000006335381    -0.000015492490     0.000004562008
      18       -0.000004709146     0.000001597906    -0.000003692489
      19       -0.000000549153     0.000001778742     0.000007471600
      20       -0.000015094571    -0.000009269425    -0.000004162825
      21        0.000005055074     0.000012724781     0.000008045401

  **** Optimization is complete! (in 7 steps) ****
    Final optimized geometry and variables:
    Molecular point group: c1

    Geometry (in Angstrom), charge = -1, multiplicity = 1:

    C           -1.300446429463     0.742795238057    -0.534674356669
    C           -0.325641227003     0.125996399824     1.551860481988
    C           -2.370170192225     1.304795026348     0.122218521755
    C           -1.384200758057     0.692434536380     2.222869323687
    C            1.787326257664    -1.337833025271     0.069081905101
    C            1.149310804582    -0.223093025074    -1.902765045484
    C            2.842813556385    -1.882347873185    -0.637976376303
    C            2.227266982665    -0.818472772288    -2.530455359245
    C           -0.236172420718     0.129217855107     0.148869855194
    C            0.876761716243    -0.463864705832    -0.546451455615
    C           -2.487385164632     1.322375625622     1.553325192851
    N            3.092648781862    -1.648242822423    -1.933010987316
    O           -3.463645963765     1.840311388856     2.162540086233
    H           -1.303464212035     0.753218431075    -1.616832174577
    H            0.475351776987    -0.308026796040     2.136012660911
    H           -3.177559396737     1.752781189243    -0.441674999481
    H           -1.406936748221     0.683927585273     3.304515405313
    H            1.663370724091    -1.613488746923     1.104871720973
    H            0.527862824355     0.450195294210    -2.472598109643
    H            3.527184858823    -2.555499659084    -0.136276041694
    H            2.413485791626    -0.610974365693    -3.577103447651

*** Psi4 exiting successfully. Buy a developer a beer!
