                              Psi4 1.0.0 Driver

  ==> Input File <==

--------------------------------------------------------------------------

memory 1000 mb

molecule butane {
  symmetry C1
  0 1
  H      1.604   0.760   -8.260
  H      1.745   2.388   -8.880
  H      2.043   1.024   -9.930
  C      2.142   1.395   -8.932
  H      4.169   2.051   -9.210
  H      3.731   1.788   -7.539
  C      3.631   1.416   -8.537
  H      5.179   -0.028   -8.174
  H      3.562   -0.682   -8.078
  C      4.203   -0.012   -8.612
  H      4.691   -1.445   -10.136
  H      4.934   0.216   -10.619
  H      3.317   -0.437   -10.523
  C      4.293   -0.453   -10.084
  units Angstrom
}

dih_string = "4 7 10 14 70"
set optking fixed_dihedral = $dih_string

optimize('MP2/6-31G(d)')
--------------------------------------------------------------------------

    Molecular point group: c1
  Charge       = 0
  Multiplicity = 1
  Basis Set: 6-31G(D)
  Basis Set:
  @DF-RHF Final Energy:  -157.29112539770682
    Total Energy =                       -157.2911253977067645
  Basis Set:
    Molecular point group: c1
  Basis Set: 6-31G(D)
  Basis Set:
  Basis Set:
	 Reference Energy          =    -157.2911253977068213 [Eh]
	 Singles Energy            =      -0.0000000000000000 [Eh]
	 Same-Spin Energy          =      -0.1248590709160631 [Eh]
	 Opposite-Spin Energy      =      -0.4206606886558687 [Eh]
	 Correlation Energy        =      -0.5455197595719318 [Eh]
	 Total Energy              =    -157.8366451572787525 [Eh]
	 SCS Total Energy          =    -157.8375379143992063 [Eh]
  Basis Set: 6-31G(D)
  Basis Set:
  @DF-RHF Final Energy:  -157.29474621705035
    Total Energy =                       -157.2947462170503172
  Basis Set:
  Basis Set: 6-31G(D)
  Basis Set:
  @DF-RHF Final Energy:  -157.29578599145003
    Total Energy =                       -157.2957859914496908
  @DF-RHF Final Energy:  -157.29623740661148
    Total Energy =                       -157.2962374066113682
  @DF-RHF Final Energy:  -157.29626297969372
    Total Energy =                       -157.2962629796938074
	 Singles Energy            =      -0.0000000000000000 [Eh]
	 Same-Spin Energy          =      -0.1246201000950090 [Eh]
	 Opposite-Spin Energy      =      -0.4224406237587726 [Eh]
	 Correlation Energy        =      -0.5470607238537817 [Eh]
	 Total Energy              =    -157.8433237035474974 [Eh]
	 SCS Total Energy          =    -157.8447317615692498 [Eh]
  Charge       = 0
  Multiplicity = 1
  Basis Set: 6-31G(D)
  Basis Set:

    Orbital Energies (a.u.)
    -----------------------

    Doubly Occupied:

       1A    -11.215963     2A    -11.215368     3A    -11.209848
       4A    -11.209846     5A     -1.070326     6A     -0.975452
       7A     -0.870815     8A     -0.775759     9A     -0.621620
      10A     -0.620068    11A     -0.573655    12A     -0.533045
      13A     -0.529704    14A     -0.503010    15A     -0.462817
      16A     -0.456314    17A     -0.456199

  @DF-RHF Final Energy:  -157.29625757378278

   => Energetics <=

    Nuclear Repulsion Energy =            132.5240872893635924
    One-Electron Energy =                -473.0410693585286026
    Two-Electron Energy =                 183.2207244953823135
    DFT Exchange-Correlation Energy =       0.0000000000000000
    Empirical Dispersion Energy =           0.0000000000000000
    PCM Polarization Energy =               0.0000000000000000
    EFP Energy =                            0.0000000000000000
    Total Energy =                       -157.2962575737826967
  Basis Set:
    Molecular point group: c1
  Basis Set: 6-31G(D)
  Basis Set:
  Basis Set:
	 Reference Energy          =    -157.2962575737827819 [Eh]
	 Singles Energy            =      -0.0000000000000000 [Eh]
	 Same-Spin Energy          =      -0.1246219755795590 [Eh]
	 Opposite-Spin Energy      =      -0.4224466506635584 [Eh]
	 Correlation Energy        =      -0.5470686262431174 [Eh]
	 Total Energy              =    -157.8433262000258992 [Eh]

	 ================> DF-SCS-MP2 Energies <==================
	-----------------------------------------------------------
	 SCS Same-Spin Scale       =       0.3333333333333333 [-]
	 SCS Opposite-Spin Scale   =       1.2000000000000000 [-]
	 SCS Same-Spin Energy      =      -0.0415406585265197 [Eh]
	 SCS Opposite-Spin Energy  =      -0.5069359807962700 [Eh]
	 SCS Correlation Energy    =      -0.5484766393227897 [Eh]
	 SCS Total Energy          =    -157.8447342131055677 [Eh]
	-----------------------------------------------------------

  -Total Gradient:
     Atom            X                  Y                   Z
    ------   -----------------  -----------------  -----------------
       1       -0.000004716573     0.000005123067    -0.000005634085
       2       -0.000004910373     0.000008566960     0.000000597527
       3       -0.000002189246    -0.000004671279    -0.000008213782
       4       -0.000167115771    -0.000150226271     0.000804591349
       5       -0.000014479861     0.000000170572    -0.000006519269
       6        0.000029047065    -0.000001972483    -0.000006922415
       7        0.000551345059     0.000322074705    -0.001114241871
       8       -0.000015005214     0.000005658630     0.000021805105
       9       -0.000002042596    -0.000005157776    -0.000012753747
      10       -0.001125631417    -0.000513482593     0.000368712610
      11        0.000003224506    -0.000007694435     0.000001385403
      12       -0.000003951655    -0.000007323063    -0.000002938821
      13       -0.000005900860     0.000002176720    -0.000002493533
      14        0.000762326935     0.000346757245    -0.000037374472

  **** Optimization is complete! (in 6 steps) ****
    Final optimized geometry and variables:
    Molecular point group: c1

    Geometry (in Angstrom), charge = 0, multiplicity = 1:

    H           -2.011930407534     0.208956402425     0.799266242866
    H           -1.831124464442     1.885924094829     0.269020145255
    H           -1.611360513795     0.569555748353    -0.884100196023
    C           -1.433749277550     0.873992699170     0.150439138625
    H            0.613146105507     1.499507304089    -0.140108729738
    H            0.177405941273     1.193935861708     1.532059414140
    C            0.048080976364     0.819840322896     0.509677912021
    H            1.645432036059    -0.573038305507     0.876511423259
    H            0.042878764989    -1.276029801341     1.006969820765
    C            0.651276563452    -0.581608079755     0.414431861453
    H            1.248850588882    -2.084266601680    -1.038399854033
    H            1.393707942928    -0.419532107666    -1.616144912533
    H           -0.195465292115    -1.185050680588    -1.503356304822
    C            0.778774613502    -1.097104368214    -1.015903325653

*** Psi4 exiting successfully. Buy a developer a beer!
