                               Psi4 1.1 release

  ==> Input File <==

--------------------------------------------------------------------------

memory 5 Gb

molecule phepyrFOH_cation {
  symmetry C1
  1 1
  C      1.885   -1.036   -0.112
  C      0.807   -0.463   0.561
  C      5.207   -2.536   0.592
  C      3.944   -2.485   -1.459
  C      1.800   -1.079   2.676
  C      6.262   -3.104   -0.108
  C      5.031   -3.055   -2.107
  C      2.921   -1.631   0.608
  C      4.038   -2.225   -0.095
  C      0.764   -0.484   1.955
  C      2.878   -1.652   2.002
  N      6.145   -3.344   -1.421
  O      -0.289   0.076   2.612
  F      3.866   -2.220   2.709
  H      1.904   -1.012   -1.199
  H      0.002   -0.002   -0.006
  H      5.308   -2.344   1.656
  H      3.044   -2.252   -2.020
  H      1.772   -1.099   3.762
  H      7.206   -3.378   0.343
  H      5.048   -3.292   -3.161
  H      6.933   -3.761   -1.916
  H      -0.175   -0.018   3.571
  units Angstrom
}

dih_string = "1 8 9 3 165"
set optking fixed_dihedral = $dih_string

optimize('MP2/aug-cc-PVTZ')
--------------------------------------------------------------------------

    Molecular point group: c1
  Charge       = 1
  Multiplicity = 1
  Basis Set: AUG-CC-PVTZ
    Blend: AUG-CC-PVTZ
  Basis Set: (AUG-CC-PVTZ AUX)
    Blend: AUG-CC-PVTZ-JKFIT
  @DF-RHF Final Energy:  -650.55321943877459
    Total Energy =                       -650.5532194387747040
  Basis Set: (AUG-CC-PVTZ AUX)
    Blend: AUG-CC-PVTZ-RI
    Molecular point group: c1
  Basis Set: AUG-CC-PVTZ
    Blend: AUG-CC-PVTZ
  Basis Set: (AUG-CC-PVTZ AUX)
    Blend: AUG-CC-PVTZ-JKFIT
  Basis Set: (AUG-CC-PVTZ AUX)
    Blend: AUG-CC-PVTZ-JKFIT
	 Reference Energy          =    -650.5532194387745903 [Eh]
	 Singles Energy            =      -0.0000000000000002 [Eh]
	 Same-Spin Energy          =      -0.6709118365807378 [Eh]
	 Opposite-Spin Energy      =      -2.0164378177700861 [Eh]
	 Correlation Energy        =      -2.6873496543508240 [Eh]
	 Total Energy              =    -653.2405690931253730 [Eh]
	 SCS Total Energy          =    -653.1965820989589702 [Eh]
  @DF-RHF Final Energy:  -650.56152937628372
    Total Energy =                       -650.5615293762837155
  @DF-RHF Final Energy:  -650.56591868889268
    Total Energy =                       -650.5659186888926797
  @DF-RHF Final Energy:  -650.56780593469034
    Total Energy =                       -650.5678059346903410
  @DF-RHF Final Energy:  -650.56857810795032
    Total Energy =                       -650.5685781079503158
  @DF-RHF Final Energy:  -650.56894681918391
    Total Energy =                       -650.5689468191840206
  @DF-RHF Final Energy:  -650.56905891429824
    Total Energy =                       -650.5690589142982390
  Charge       = 1
  Multiplicity = 1
  Basis Set: AUG-CC-PVTZ
    Blend: AUG-CC-PVTZ
  Basis Set: (AUG-CC-PVTZ AUX)
    Blend: AUG-CC-PVTZ-JKFIT

    Orbital Energies (a.u.)
    -----------------------

    Doubly Occupied:

       1A    -26.449572     2A    -20.721302     3A    -15.825891
       4A    -11.479197     5A    -11.477378     6A    -11.476047
       7A    -11.455123     8A    -11.452134     9A    -11.409659
      10A    -11.404579    11A    -11.389530    12A    -11.384993
      13A    -11.363716    14A    -11.354978    15A     -1.770328
      16A     -1.545218    17A     -1.505209    18A     -1.323023
      19A     -1.276092    20A     -1.235129    21A     -1.171864
      22A     -1.163370    23A     -1.065782    24A     -1.061455
      25A     -0.999410    26A     -0.976379    27A     -0.958467
      28A     -0.905029    29A     -0.873977    30A     -0.866423
      31A     -0.853295    32A     -0.835566    33A     -0.822170
      34A     -0.805971    35A     -0.786325    36A     -0.772022
      37A     -0.770507    38A     -0.755072    39A     -0.728101
      40A     -0.723230    41A     -0.709411    42A     -0.691378
      43A     -0.667528    44A     -0.647638    45A     -0.643856
      46A     -0.574113    47A     -0.536346    48A     -0.481551
      49A     -0.446841

  @DF-RHF Final Energy:  -650.56908465467336

   => Energetics <=

    Nuclear Repulsion Energy =            830.3548018209726251
    One-Electron Energy =               -2520.6634211809700901
    Two-Electron Energy =                1039.7395347053241039
    DFT Exchange-Correlation Energy =       0.0000000000000000
    Empirical Dispersion Energy =           0.0000000000000000
    PCM Polarization Energy =               0.0000000000000000
    EFP Energy =                            0.0000000000000000
    Total Energy =                       -650.5690846546733610
  Basis Set: (AUG-CC-PVTZ AUX)
    Blend: AUG-CC-PVTZ-RI
    Molecular point group: c1
  Basis Set: AUG-CC-PVTZ
    Blend: AUG-CC-PVTZ
  Basis Set: (AUG-CC-PVTZ AUX)
    Blend: AUG-CC-PVTZ-JKFIT
  Basis Set: (AUG-CC-PVTZ AUX)
    Blend: AUG-CC-PVTZ-JKFIT
	 Reference Energy          =    -650.5690846546733610 [Eh]
	 Singles Energy            =      -0.0000000000000002 [Eh]
	 Same-Spin Energy          =      -0.6687539454212975 [Eh]
	 Opposite-Spin Energy      =      -2.0125737521127682 [Eh]
	 Correlation Energy        =      -2.6813276975340656 [Eh]
	 Total Energy              =    -653.2504123522073769 [Eh]

	 ================> DF-SCS-MP2 Energies <==================
	-----------------------------------------------------------
	 SCS Same-Spin Scale       =       0.3333333333333333 [-]
	 SCS Opposite-Spin Scale   =       1.2000000000000000 [-]
	 SCS Same-Spin Energy      =      -0.2229179818070992 [Eh]
	 SCS Opposite-Spin Energy  =      -2.4150885025353217 [Eh]
	 SCS Correlation Energy    =      -2.6380064843424207 [Eh]
	 SCS Total Energy          =    -653.2070911390158017 [Eh]
	-----------------------------------------------------------

  -Total Gradient:
     Atom            X                  Y                   Z
    ------   -----------------  -----------------  -----------------
       1       -0.001038619965    -0.001897014420    -0.000037714953
       2        0.000046456969    -0.000006522617    -0.000004600038
       3       -0.000841251762    -0.001970853113     0.000499735949
       4       -0.000017863051     0.000016484703     0.000007282735
       5       -0.000033862027     0.000014936171     0.000048760292
       6        0.000018557028    -0.000010961798    -0.000075983574
       7       -0.000009848937     0.000017491496    -0.000009932245
       8        0.001159497196     0.001741916800     0.000284545424
       9        0.000703904563     0.002102060853    -0.000670716386
      10        0.000003831312    -0.000007854582    -0.000009919755
      11       -0.000068584258     0.000037288730    -0.000108117580
      12        0.000027251273    -0.000006510535     0.000047759102
      13       -0.000013676055     0.000011535718    -0.000003148994
      14        0.000066819491    -0.000046639918     0.000040333076
      15        0.000003373252    -0.000005812069    -0.000020796836
      16       -0.000017487507     0.000011100957     0.000012957863
      17        0.000016709561     0.000003597243    -0.000006862029
      18       -0.000015028463     0.000010840402    -0.000012861523
      19        0.000017631178    -0.000010032941     0.000000022990
      20       -0.000003532506     0.000008458606     0.000017027863
      21       -0.000005096421     0.000001499076     0.000000626365
      22       -0.000001946137    -0.000012343651    -0.000003005155
      23        0.000002765257    -0.000002665101     0.000004607429

  **** Optimization is complete! (in 8 steps) ****
    Final optimized geometry and variables:
    Molecular point group: c1

    Geometry (in Angstrom), charge = 1, multiplicity = 1:

    C           -1.337362953053     0.801273533491    -0.683710713869
    C           -2.394454741796     1.356552146581    -0.005936813020
    C            2.065584696017    -0.750396878376    -0.211122172191
    C            0.669476962731    -0.700178338193    -2.142522366267
    C           -1.382654437834     0.709035268415     2.075993931972
    C            3.058089198215    -1.316059365262    -0.971581928236
    C            1.680136333517    -1.269675114135    -2.872274539548
    C           -0.254483633305     0.191498710042    -0.026244858221
    C            0.826114508362    -0.407826693182    -0.777446073359
    C           -2.426077626776     1.312979129706     1.387602617349
    C           -0.333572494378     0.171734134606     1.368776868948
    N            2.846236232039    -1.561421774682    -2.273423001002
    O           -3.485247535841     1.869072067129     1.990654692007
    F            0.627777738235    -0.432622714042     2.087946276214
    H           -1.332430479875     0.885204071707    -1.758110530901
    H           -3.203504628969     1.835858374626    -0.532756124356
    H            2.278448686249    -0.557166769831     0.823356826772
    H           -0.259912182402    -0.511426244519    -2.650870598228
    H           -1.371220298869     0.640367802606     3.152779633554
    H            4.024744395624    -1.579613234031    -0.575817628193
    H            1.592312246263    -1.512667100456    -3.917981760276
    H            3.585638074631    -1.983965752691    -2.819534146376
    H           -3.415079693110     1.792124576770     2.949146075292

*** Psi4 exiting successfully. Buy a developer a beer!
