                               Psi4 1.1 release

  ==> Input File <==

--------------------------------------------------------------------------

memory 5 Gb

molecule phepyrOH_neutral {
  symmetry C1
  0 1
  C      1.885   -1.036   -0.112
  C      2.878   -1.652   2.002
  C      0.807   -0.463   0.561
  C      1.800   -1.079   2.676
  C      3.862   -2.773   -1.356
  C      5.298   -2.250   0.501
  C      4.965   -3.329   -1.983
  C      6.337   -2.829   -0.209
  C      2.921   -1.631   0.608
  C      4.040   -2.225   -0.090
  C      0.764   -0.484   1.955
  N      6.202   -3.372   -1.440
  O      -0.288   0.076   2.612
  H      1.904   -1.012   -1.199
  H      3.678   -2.112   2.578
  H      0.003   -0.001   -0.006
  H      1.772   -1.098   3.762
  H      2.895   -2.772   -1.850
  H      5.475   -1.833   1.487
  H      4.879   -3.768   -2.972
  H      7.337   -2.875   0.208
  H      -0.355   1.020   2.398
  units Angstrom
}

dih_string = "3 11 13 22 300"
set optking fixed_dihedral = $dih_string

optimize('MP2/aug-cc-PVTZ')
--------------------------------------------------------------------------

    Molecular point group: c1
  Charge       = 0
  Multiplicity = 1
  Basis Set: AUG-CC-PVTZ
    Blend: AUG-CC-PVTZ
  Basis Set: (AUG-CC-PVTZ AUX)
    Blend: AUG-CC-PVTZ-JKFIT
  @DF-RHF Final Energy:  -551.28251010996848
    Total Energy =                       -551.2825101099684844
  Basis Set: (AUG-CC-PVTZ AUX)
    Blend: AUG-CC-PVTZ-RI
    Molecular point group: c1
  Basis Set: AUG-CC-PVTZ
    Blend: AUG-CC-PVTZ
  Basis Set: (AUG-CC-PVTZ AUX)
    Blend: AUG-CC-PVTZ-JKFIT
  Basis Set: (AUG-CC-PVTZ AUX)
    Blend: AUG-CC-PVTZ-JKFIT
	 Reference Energy          =    -551.2825101099684844 [Eh]
	 Singles Energy            =      -0.0000000000000001 [Eh]
	 Same-Spin Energy          =      -0.6048164859421280 [Eh]
	 Opposite-Spin Energy      =      -1.8304555585905937 [Eh]
	 Correlation Energy        =      -2.4352720445327218 [Eh]
	 Total Energy              =    -553.7177821545011511 [Eh]
	 SCS Total Energy          =    -553.6806622755912031 [Eh]
  @DF-RHF Final Energy:  -551.28834551340333
    Total Energy =                       -551.2883455134033284
  @DF-RHF Final Energy:  -551.28962611279928
    Total Energy =                       -551.2896261127992830
  @DF-RHF Final Energy:  -551.28966154764498
    Total Energy =                       -551.2896615476449824
  @DF-RHF Final Energy:  -551.28974530694359
    Total Energy =                       -551.2897453069435869
  @DF-RHF Final Energy:  -551.28984255662601
    Total Energy =                       -551.2898425566260130
  Charge       = 0
  Multiplicity = 1
  Basis Set: AUG-CC-PVTZ
    Blend: AUG-CC-PVTZ
  Basis Set: (AUG-CC-PVTZ AUX)
    Blend: AUG-CC-PVTZ-JKFIT

    Orbital Energies (a.u.)
    -----------------------

    Doubly Occupied:

       1A    -20.591605     2A    -15.561253     3A    -11.306915
       4A    -11.272239     5A    -11.272221     6A    -11.265869
       7A    -11.251590     8A    -11.250517     9A    -11.249431
      10A    -11.243334    11A    -11.239980    12A    -11.236576
      13A    -11.236535    14A     -1.406232    15A     -1.258661
      16A     -1.175838    17A     -1.106096    18A     -1.039222
      19A     -1.030488    20A     -1.012951    21A     -0.880153
      22A     -0.872119    23A     -0.841490    24A     -0.812488
      25A     -0.746267    26A     -0.724743    27A     -0.683497
      28A     -0.662552    29A     -0.654221    30A     -0.638900
      31A     -0.634046    32A     -0.606341    33A     -0.598313
      34A     -0.593716    35A     -0.555551    36A     -0.541329
      37A     -0.533650    38A     -0.522393    39A     -0.502277
      40A     -0.488214    41A     -0.417951    42A     -0.400187
      43A     -0.355052    44A     -0.348740    45A     -0.317451

  @DF-RHF Final Energy:  -551.28987558195251

   => Energetics <=

    Nuclear Repulsion Energy =            697.4503105497514071
    One-Electron Energy =               -2131.6019790063305663
    Two-Electron Energy =                 882.8617928746265306
    DFT Exchange-Correlation Energy =       0.0000000000000000
    Empirical Dispersion Energy =           0.0000000000000000
    PCM Polarization Energy =               0.0000000000000000
    EFP Energy =                            0.0000000000000000
    Total Energy =                       -551.2898755819525149
  Basis Set: (AUG-CC-PVTZ AUX)
    Blend: AUG-CC-PVTZ-RI
    Molecular point group: c1
  Basis Set: AUG-CC-PVTZ
    Blend: AUG-CC-PVTZ
  Basis Set: (AUG-CC-PVTZ AUX)
    Blend: AUG-CC-PVTZ-JKFIT
  Basis Set: (AUG-CC-PVTZ AUX)
    Blend: AUG-CC-PVTZ-JKFIT
	 Reference Energy          =    -551.2898755819525149 [Eh]
	 Singles Energy            =      -0.0000000000000000 [Eh]
	 Same-Spin Energy          =      -0.6037231260247981 [Eh]
	 Opposite-Spin Energy      =      -1.8280957924650247 [Eh]
	 Correlation Energy        =      -2.4318189184898227 [Eh]
	 Total Energy              =    -553.7216945004423678 [Eh]

	 ================> DF-SCS-MP2 Energies <==================
	-----------------------------------------------------------
	 SCS Same-Spin Scale       =       0.3333333333333333 [-]
	 SCS Opposite-Spin Scale   =       1.2000000000000000 [-]
	 SCS Same-Spin Energy      =      -0.2012410420082660 [Eh]
	 SCS Opposite-Spin Energy  =      -2.1937149509580296 [Eh]
	 SCS Correlation Energy    =      -2.3949559929662958 [Eh]
	 SCS Total Energy          =    -553.6848315749188032 [Eh]
	-----------------------------------------------------------

  -Total Gradient:
     Atom            X                  Y                   Z
    ------   -----------------  -----------------  -----------------
       1       -0.000008846268     0.000025552437    -0.000007527596
       2       -0.000001459462     0.000006494352     0.000037069970
       3       -0.000946366605    -0.001836137569    -0.000100154031
       4        0.000002494213     0.000002984854    -0.000000913917
       5        0.000014361319     0.000020255357    -0.000035979775
       6        0.000010402672    -0.000045441314     0.000022389661
       7       -0.000038493603    -0.000090739004     0.000043490205
       8        0.000020383721     0.000110010361    -0.000039384330
       9        0.000035451654    -0.000040619907    -0.000035216412
      10       -0.000045000879     0.000036766561     0.000021849568
      11        0.001742267421     0.002958385567     0.000667012403
      12        0.000012079883    -0.000007530839    -0.000005730833
      13       -0.002417602760    -0.001674444003    -0.002640219744
      14        0.000004389514    -0.000010286397     0.000021621550
      15       -0.000002785412     0.000012784767    -0.000021011327
      16        0.000010748248    -0.000005337123    -0.000001240400
      17       -0.000005134951    -0.000005508957    -0.000006808568
      18        0.000026194503    -0.000001815407     0.000006751674
      19       -0.000001469590    -0.000015177933    -0.000018284476
      20        0.000003149025     0.000030097109    -0.000016516514
      21       -0.000008174241    -0.000032928384     0.000021591355
      22        0.001593411602     0.000562635479     0.002087211538

  **** Optimization is complete! (in 7 steps) ****
    Final optimized geometry and variables:
    Molecular point group: c1

    Geometry (in Angstrom), charge = 0, multiplicity = 1:

    C           -1.234641310226     0.777877420098    -0.563036714798
    C           -0.319603604744     0.054949625039     1.527863048196
    C           -2.308824546153     1.347483150793     0.100913680111
    C           -1.384197741968     0.634077472563     2.198685718933
    C            0.749218850867    -1.096970785891    -1.805728135031
    C            2.188305919491    -0.479191388110    -0.027687769879
    C            1.848388658047    -1.658549767277    -2.435171146375
    C            3.228161416449    -1.066559015895    -0.730150851651
    C           -0.224093017261     0.122129436113     0.138560622436
    C            0.904389039129    -0.484665536222    -0.565342772199
    C           -2.374353692706     1.293188467208     1.486526609983
    N            3.080156923692    -1.653366972403    -1.920176997589
    O           -3.455721055858     1.791564267875     2.175215758529
    H           -1.174162573133     0.855243732158    -1.638427170496
    H            0.434807686815    -0.476643416162     2.088514529129
    H           -3.096363988351     1.840303427638    -0.449499280011
    H           -1.465325652882     0.575843985680     3.272873983458
    H           -0.224356228959    -1.160040805676    -2.267863043047
    H            2.383307453379     0.000614275049     0.919518250063
    H            1.734110703430    -2.141108515254    -3.395844250533
    H            4.228973739166    -1.060872914307    -0.321260863286
    H           -3.546019531491     2.728641322065     1.981309185175

*** Psi4 exiting successfully. Buy a developer a beer!
