                               Psi4 1.1 release

  ==> Input File <==

--------------------------------------------------------------------------

memory 5 Gb

molecule phepyrFOH_neutral {
  symmetry C1
  0 1
  C      1.885   -1.036   -0.112
  C      0.807   -0.463   0.561
  C      4.635   -1.549   -1.153
  C      4.518   -3.473   0.286
  C      1.800   -1.079   2.676
  C      5.702   -2.160   -1.792
  C      5.590   -3.997   -0.418
  C      2.921   -1.631   0.608
  C      4.038   -2.225   -0.095
  C      0.764   -0.484   1.955
  C      2.878   -1.652   2.002
  N      6.197   -3.371   -1.451
  O      -0.289   0.076   2.612
  F      3.866   -2.220   2.709
  H      1.904   -1.012   -1.199
  H      0.002   -0.002   -0.006
  H      4.289   -0.573   -1.479
  H      4.077   -4.029   1.107
  H      1.772   -1.099   3.762
  H      6.204   -1.674   -2.622
  H      6.001   -4.968   -0.160
  H      -0.175   -0.018   3.571
  units Angstrom
}

dih_string = "1 8 9 3 45"
set optking fixed_dihedral = $dih_string

optimize('MP2/aug-cc-PVTZ')
--------------------------------------------------------------------------

    Molecular point group: c1
  Charge       = 0
  Multiplicity = 1
  Basis Set: AUG-CC-PVTZ
    Blend: AUG-CC-PVTZ
  Basis Set: (AUG-CC-PVTZ AUX)
    Blend: AUG-CC-PVTZ-JKFIT

    Orbital Energies (a.u.)
    -----------------------

    Doubly Occupied:

       1A    -26.329559     2A    -20.610465     3A    -15.563596
       4A    -11.351074     5A    -11.329412     6A    -11.274030
       7A    -11.272858     8A    -11.266171     9A    -11.265195
      10A    -11.255453    11A    -11.253754    12A    -11.246938
      13A    -11.238835    14A    -11.236311    15A     -1.648566
      16A     -1.425026    17A     -1.249240    18A     -1.182852
      19A     -1.110465    20A     -1.043010    21A     -1.033309
      22A     -1.019846    23A     -0.893323    24A     -0.879541
      25A     -0.851513    26A     -0.825330    27A     -0.773815
      28A     -0.749614    29A     -0.724344    30A     -0.715005
      31A     -0.699377    32A     -0.666579    33A     -0.659237
      34A     -0.640200    35A     -0.635296    36A     -0.614552
      37A     -0.609665    38A     -0.597366    39A     -0.578173
      40A     -0.544673    41A     -0.537513    42A     -0.533826
      43A     -0.517946    44A     -0.497254    45A     -0.418233
      46A     -0.394618    47A     -0.360664    48A     -0.348581
      49A     -0.318490

  @DF-RHF Final Energy:  -650.17335345548474

   => Energetics <=

    Nuclear Repulsion Energy =            815.2170888676212144
    One-Electron Energy =               -2505.1994991145274980
    Two-Electron Energy =                1039.8090567914216535
    DFT Exchange-Correlation Energy =       0.0000000000000000
    Empirical Dispersion Energy =           0.0000000000000000
    PCM Polarization Energy =               0.0000000000000000
    EFP Energy =                            0.0000000000000000
    Total Energy =                       -650.1733534554846301
  Basis Set: (AUG-CC-PVTZ AUX)
    Blend: AUG-CC-PVTZ-RI
    Molecular point group: c1

    Geometry (in Angstrom), charge = 0, multiplicity = 1:

       Center              X                  Y                   Z               Mass
    ------------   -----------------  -----------------  -----------------  -----------------
           C         -1.322045162032     0.755149207716    -0.800357645070    12.000000000000
           C         -2.400045162032     1.328149207716    -0.127357645070    12.000000000000
           C          1.427954837968     0.242149207716    -1.841357645070    12.000000000000
           C          1.310954837968    -1.681850792284    -0.402357645070    12.000000000000
           C         -1.407045162032     0.712149207716     1.987642354930    12.000000000000
           C          2.494954837968    -0.368850792284    -2.480357645070    12.000000000000
           C          2.382954837968    -2.205850792284    -1.106357645070    12.000000000000
           C         -0.286045162032     0.160149207716    -0.080357645070    12.000000000000
           C          0.830954837968    -0.433850792284    -0.783357645070    12.000000000000
           C         -2.443045162032     1.307149207716     1.266642354930    12.000000000000
           C         -0.329045162032     0.139149207716     1.313642354930    12.000000000000
           N          2.989954837968    -1.579850792284    -2.139357645070    14.003074004780
           O         -3.496045162032     1.867149207716     1.923642354930    15.994914619560
           F          0.658954837968    -0.428850792284     2.020642354930    18.998403224000
           H         -1.303045162032     0.779149207716    -1.887357645070     1.007825032070
           H         -3.205045162032     1.789149207716    -0.694357645070     1.007825032070
           H          1.081954837968     1.218149207716    -2.167357645070     1.007825032070
           H          0.869954837968    -2.237850792284     0.418642354930     1.007825032070
           H         -1.435045162032     0.692149207716     3.073642354930     1.007825032070
           H          2.996954837968     0.117149207716    -3.310357645070     1.007825032070
           H          2.793954837968    -3.176850792284    -0.848357645070     1.007825032070
           H         -3.382045162032     1.773149207716     2.882642354930     1.007825032070

  Basis Set: AUG-CC-PVTZ
    Blend: AUG-CC-PVTZ
  Basis Set: (AUG-CC-PVTZ AUX)
    Blend: AUG-CC-PVTZ-JKFIT
  Basis Set: (AUG-CC-PVTZ AUX)
    Blend: AUG-CC-PVTZ-JKFIT
	 Reference Energy          =    -650.1733534554847438 [Eh]
	 Singles Energy            =      -0.0000000000000001 [Eh]
	 Same-Spin Energy          =      -0.6780304627265418 [Eh]
	 Opposite-Spin Energy      =      -2.0199955553170486 [Eh]
	 Correlation Energy        =      -2.6980260180435902 [Eh]
	 Total Energy              =    -652.8713794735283500 [Eh]

	 ================> DF-SCS-MP2 Energies <==================
	-----------------------------------------------------------
	 SCS Same-Spin Scale       =       0.3333333333333333 [-]
	 SCS Opposite-Spin Scale   =       1.2000000000000000 [-]
	 SCS Same-Spin Energy      =      -0.2260101542421806 [Eh]
	 SCS Opposite-Spin Energy  =      -2.4239946663804584 [Eh]
	 SCS Correlation Energy    =      -2.6500048206226388 [Eh]
	 SCS Total Energy          =    -652.8233582761073421 [Eh]
	-----------------------------------------------------------

  -Total Gradient:
     Atom            X                  Y                   Z
    ------   -----------------  -----------------  -----------------
       1        0.009139781247    -0.007274290997    -0.015113777280
       2        0.003251627688    -0.002196634291     0.003939987719
       3       -0.004905717992     0.006841142070     0.002963377193
       4       -0.007573080820     0.001307420708     0.005445802252
       5       -0.008508817217     0.004478038471     0.001164211924
       6       -0.007700859656     0.011101122622     0.001427658052
       7       -0.008428603407    -0.001207951038     0.009673128235
       8       -0.003954445296     0.002356261124    -0.000451546920
       9        0.001104717961    -0.000926350196    -0.002794949554
      10       -0.008613734321     0.004640256219    -0.004856768301
      11        0.025086776399    -0.010506086720     0.005111909192
      12        0.013032534487    -0.007579952405    -0.008410967407
      13        0.002751176644    -0.001319934042     0.000546773606
      14        0.001228012330    -0.002676259639     0.000025909107
      15       -0.001814627542     0.002288748369    -0.006415048617
      16       -0.003049484509     0.002136084823    -0.005369883921
      17       -0.000915202725     0.003832150564    -0.003482985241
      18       -0.001145975394    -0.003623200537     0.004648913571
      19       -0.001186121819     0.000192462267     0.004336118086
      20        0.001655864957     0.000520710376    -0.002185180909
      21        0.001736629127    -0.002697007560     0.000407619358
      22       -0.001190450143     0.000313269808     0.009389699865

*** Psi4 exiting successfully. Buy a developer a beer!
