                               Psi4 1.1 release

  ==> Input File <==

--------------------------------------------------------------------------

memory 1000 mb

molecule butane {
  symmetry C1
  0 1
  H      1.604   0.760   -8.260
  H      1.745   2.388   -8.880
  H      2.043   1.024   -9.930
  C      2.142   1.395   -8.932
  H      4.169   2.051   -9.210
  H      3.731   1.788   -7.539
  C      3.631   1.416   -8.537
  H      3.665   -0.647   -7.940
  H      4.104   -0.384   -9.610
  C      4.203   -0.012   -8.612
  H      6.159   0.875   -8.637
  H      6.172   -0.871   -8.591
  H      5.778   0.037   -7.152
  C      5.691   0.009   -8.218
  units Angstrom
}

dih_string = "7 10 14 13 80"
set optking fixed_dihedral = $dih_string

optimize('MP2/aug-cc-pvtz')
--------------------------------------------------------------------------

    Molecular point group: c1
  Charge       = 0
  Multiplicity = 1
  Basis Set: AUG-CC-PVTZ
    Blend: AUG-CC-PVTZ
  Basis Set: (AUG-CC-PVTZ AUX)
    Blend: AUG-CC-PVTZ-JKFIT
  @DF-RHF Final Energy:  -157.35142096465688
    Total Energy =                       -157.3514209646568816
  Basis Set: (AUG-CC-PVTZ AUX)
    Blend: AUG-CC-PVTZ-RI
    Molecular point group: c1
  Basis Set: AUG-CC-PVTZ
    Blend: AUG-CC-PVTZ
  Basis Set: (AUG-CC-PVTZ AUX)
    Blend: AUG-CC-PVTZ-JKFIT
  Basis Set: (AUG-CC-PVTZ AUX)
    Blend: AUG-CC-PVTZ-JKFIT
	 Reference Energy          =    -157.3514209646568816 [Eh]
	 Singles Energy            =      -0.0000000000000000 [Eh]
	 Same-Spin Energy          =      -0.1654004170925413 [Eh]
	 Opposite-Spin Energy      =      -0.6388839242771859 [Eh]
	 Correlation Energy        =      -0.8042843413697272 [Eh]
	 Total Energy              =    -158.1557053060266185 [Eh]
	 SCS Total Energy          =    -158.1732151461536944 [Eh]
  @DF-RHF Final Energy:  -157.35410761314546
    Total Energy =                       -157.3541076131454588
  @DF-RHF Final Energy:  -157.35493593190230
    Total Energy =                       -157.3549359319023040
  @DF-RHF Final Energy:  -157.35521561644299
    Total Energy =                       -157.3552156164429903
  @DF-RHF Final Energy:  -157.35522649364592
    Total Energy =                       -157.3552264936459153
  Charge       = 0
  Multiplicity = 1
  Basis Set: AUG-CC-PVTZ
    Blend: AUG-CC-PVTZ
  Basis Set: (AUG-CC-PVTZ AUX)
    Blend: AUG-CC-PVTZ-JKFIT

    Orbital Energies (a.u.)
    -----------------------

    Doubly Occupied:

       1A    -11.211412     2A    -11.210767     3A    -11.205969
       4A    -11.205911     5A     -1.073954     6A     -0.981871
       7A     -0.861267     8A     -0.787963     9A     -0.640660
      10A     -0.585082    11A     -0.577388    12A     -0.568544
      13A     -0.513824    14A     -0.495321    15A     -0.470188
      16A     -0.460655    17A     -0.455556

  @DF-RHF Final Energy:  -157.35523367769099

   => Energetics <=

    Nuclear Repulsion Energy =            131.4776736098527294
    One-Electron Energy =                -471.0531491880292947
    Two-Electron Energy =                 182.2202419004855756
    DFT Exchange-Correlation Energy =       0.0000000000000000
    Empirical Dispersion Energy =           0.0000000000000000
    PCM Polarization Energy =               0.0000000000000000
    EFP Energy =                            0.0000000000000000
    Total Energy =                       -157.3552336776909897
  Basis Set: (AUG-CC-PVTZ AUX)
    Blend: AUG-CC-PVTZ-RI
    Molecular point group: c1
  Basis Set: AUG-CC-PVTZ
    Blend: AUG-CC-PVTZ
  Basis Set: (AUG-CC-PVTZ AUX)
    Blend: AUG-CC-PVTZ-JKFIT
  Basis Set: (AUG-CC-PVTZ AUX)
    Blend: AUG-CC-PVTZ-JKFIT
	 Reference Energy          =    -157.3552336776909897 [Eh]
	 Singles Energy            =      -0.0000000000000002 [Eh]
	 Same-Spin Energy          =      -0.1654436844221190 [Eh]
	 Opposite-Spin Energy      =      -0.6393219502247038 [Eh]
	 Correlation Energy        =      -0.8047656346468229 [Eh]
	 Total Energy              =    -158.1599993123378169 [Eh]

	 ================> DF-SCS-MP2 Energies <==================
	-----------------------------------------------------------
	 SCS Same-Spin Scale       =       0.3333333333333333 [-]
	 SCS Opposite-Spin Scale   =       1.2000000000000000 [-]
	 SCS Same-Spin Energy      =      -0.0551478948073730 [Eh]
	 SCS Opposite-Spin Energy  =      -0.7671863402696446 [Eh]
	 SCS Correlation Energy    =      -0.8223342350770178 [Eh]
	 SCS Total Energy          =    -158.1775679127680121 [Eh]
	-----------------------------------------------------------

  -Total Gradient:
     Atom            X                  Y                   Z
    ------   -----------------  -----------------  -----------------
       1        0.000002071392    -0.000003325917     0.000006592731
       2       -0.000015842144     0.000007284228    -0.000004397193
       3       -0.000009448464    -0.000002269271    -0.000003505207
       4        0.000014897822     0.000015576197    -0.000019835011
       5       -0.000012774243     0.000000617577     0.000007088332
       6        0.000005504702    -0.000007679916     0.000007053607
       7        0.000532645592     0.000335093032    -0.001935226614
       8       -0.000011676440    -0.000005290001     0.000012667517
       9        0.000000885050     0.000000120931     0.000018330189
      10       -0.000734442798    -0.001181958414     0.002686073563
      11        0.000016794592     0.000010000204    -0.000000676996
      12        0.000007914823     0.000007070091     0.000003590437
      13       -0.000027937499    -0.002806859279     0.000050908238
      14        0.000231407615     0.003631620538    -0.000828663592

  **** Optimization is complete! (in 6 steps) ****
    Final optimized geometry and variables:
    Molecular point group: c1

    Geometry (in Angstrom), charge = 0, multiplicity = 1:

    H           -2.346127815743     0.060576070415     0.339109298567
    H           -2.206608490909     1.689532406745    -0.312549283949
    H           -1.925132688543     0.296798318526    -1.351199264944
    C           -1.780712094269     0.689449256738    -0.346154116930
    H            0.238034349333     1.352698518004    -0.655970423887
    H           -0.179178039773     1.103741463858     1.023502951618
    C           -0.308779752057     0.694075279679     0.020125525824
    H           -0.253645342259    -1.370722097586     0.595955206492
    H            0.212830150185    -1.064736787713    -1.059276064884
    C            0.312020061260    -0.688709398160    -0.039806657802
    H            2.298990602538     0.168093904967    -0.047120832217
    H            2.282768727779    -1.589580620592     0.015117106762
    H            1.882143335492    -0.673284719320     1.448742987031
    C            1.777129562279    -0.692557312650     0.366145013961

*** Psi4 exiting successfully. Buy a developer a beer!
