                               Psi4 1.1 release

  ==> Input File <==

--------------------------------------------------------------------------

memory 5 Gb

molecule phepyrFOH_cation {
  symmetry C1
  1 1
  C      1.885   -1.036   -0.112
  C      0.807   -0.463   0.561
  C      5.339   -1.983   0.335
  C      3.812   -3.038   -1.201
  C      1.800   -1.079   2.676
  C      6.390   -2.565   -0.359
  C      4.902   -3.593   -1.856
  C      2.921   -1.631   0.608
  C      4.038   -2.225   -0.095
  C      0.764   -0.484   1.955
  C      2.878   -1.652   2.002
  N      6.145   -3.344   -1.421
  O      -0.289   0.076   2.612
  F      3.866   -2.220   2.709
  H      1.904   -1.012   -1.199
  H      0.002   -0.002   -0.006
  H      5.545   -1.353   1.195
  H      2.807   -3.243   -1.559
  H      1.772   -1.099   3.762
  H      7.431   -2.434   -0.097
  H      4.822   -4.236   -2.722
  H      6.932   -3.761   -1.917
  H      -0.175   -0.018   3.571
  units Angstrom
}

dih_string = "1 8 9 3 135"
set optking fixed_dihedral = $dih_string

optimize('MP2/aug-cc-PVTZ')
--------------------------------------------------------------------------

    Molecular point group: c1
  Charge       = 1
  Multiplicity = 1
  Basis Set: AUG-CC-PVTZ
    Blend: AUG-CC-PVTZ
  Basis Set: (AUG-CC-PVTZ AUX)
    Blend: AUG-CC-PVTZ-JKFIT
  @DF-RHF Final Energy:  -650.56162074593828
    Total Energy =                       -650.5616207459383986
  Basis Set: (AUG-CC-PVTZ AUX)
    Blend: AUG-CC-PVTZ-RI
    Molecular point group: c1
  Basis Set: AUG-CC-PVTZ
    Blend: AUG-CC-PVTZ
  Basis Set: (AUG-CC-PVTZ AUX)
    Blend: AUG-CC-PVTZ-JKFIT
  Basis Set: (AUG-CC-PVTZ AUX)
    Blend: AUG-CC-PVTZ-JKFIT
	 Reference Energy          =    -650.5616207459382849 [Eh]
	 Singles Energy            =      -0.0000000000000001 [Eh]
	 Same-Spin Energy          =      -0.6695436098850011 [Eh]
	 Opposite-Spin Energy      =      -2.0146113280085287 [Eh]
	 Correlation Energy        =      -2.6841549378935299 [Eh]
	 Total Energy              =    -653.2457756838317664 [Eh]
	 SCS Total Energy          =    -653.2023355428435707 [Eh]
  @DF-RHF Final Energy:  -650.56743986137315
    Total Energy =                       -650.5674398613732592
  @DF-RHF Final Energy:  -650.56915490074744
    Total Energy =                       -650.5691549007474350
  @DF-RHF Final Energy:  -650.56925388901323
    Total Energy =                       -650.5692538890132255
  @DF-RHF Final Energy:  -650.56922116479336
    Total Energy =                       -650.5692211647933618
  @DF-RHF Final Energy:  -650.56927099551751
    Total Energy =                       -650.5692709955173996
  @DF-RHF Final Energy:  -650.56926366263588
    Total Energy =                       -650.5692636626358762
  @DF-RHF Final Energy:  -650.56927350596834
    Total Energy =                       -650.5692735059683400
  @DF-RHF Final Energy:  -650.56926438510266
    Total Energy =                       -650.5692643851027697
  @DF-RHF Final Energy:  -650.56924857100648
    Total Energy =                       -650.5692485710064830
  @DF-RHF Final Energy:  -650.56926178899050
    Total Energy =                       -650.5692617889903886
  Charge       = 1
  Multiplicity = 1
  Basis Set: AUG-CC-PVTZ
    Blend: AUG-CC-PVTZ
  Basis Set: (AUG-CC-PVTZ AUX)
    Blend: AUG-CC-PVTZ-JKFIT

    Orbital Energies (a.u.)
    -----------------------

    Doubly Occupied:

       1A    -26.444352     2A    -20.714784     3A    -15.833006
       4A    -11.482864     5A    -11.480817     6A    -11.471601
       7A    -11.453685     8A    -11.445454     9A    -11.413603
      10A    -11.411710    11A    -11.385977    12A    -11.379223
      13A    -11.361389    14A    -11.351679    15A     -1.763860
      16A     -1.538287    17A     -1.510455    18A     -1.323962
      19A     -1.275583    20A     -1.240330    21A     -1.169534
      22A     -1.159491    23A     -1.066448    24A     -1.063913
      25A     -0.997311    26A     -0.971542    27A     -0.961420
      28A     -0.898912    29A     -0.872035    30A     -0.862558
      31A     -0.857702    32A     -0.831721    33A     -0.818062
      34A     -0.807784    35A     -0.794655    36A     -0.774832
      37A     -0.764854    38A     -0.751593    39A     -0.731647
      40A     -0.718227    41A     -0.708795    42A     -0.691970
      43A     -0.666027    44A     -0.647096    45A     -0.632171
      46A     -0.574777    47A     -0.539637    48A     -0.478462
      49A     -0.445692

  @DF-RHF Final Energy:  -650.56927435368652

   => Energetics <=

    Nuclear Repulsion Energy =            831.5653622516082351
    One-Electron Energy =               -2523.1862987743397753
    Two-Electron Energy =                1041.0516621690449028
    DFT Exchange-Correlation Energy =       0.0000000000000000
    Empirical Dispersion Energy =           0.0000000000000000
    PCM Polarization Energy =               0.0000000000000000
    EFP Energy =                            0.0000000000000000
    Total Energy =                       -650.5692743536865237
  Basis Set: (AUG-CC-PVTZ AUX)
    Blend: AUG-CC-PVTZ-RI
    Molecular point group: c1
  Basis Set: AUG-CC-PVTZ
    Blend: AUG-CC-PVTZ
  Basis Set: (AUG-CC-PVTZ AUX)
    Blend: AUG-CC-PVTZ-JKFIT
  Basis Set: (AUG-CC-PVTZ AUX)
    Blend: AUG-CC-PVTZ-JKFIT
	 Reference Energy          =    -650.5692743536865237 [Eh]
	 Singles Energy            =      -0.0000000000000027 [Eh]
	 Same-Spin Energy          =      -0.6686972761610284 [Eh]
	 Opposite-Spin Energy      =      -2.0122616652689902 [Eh]
	 Correlation Energy        =      -2.6809589414300214 [Eh]
	 Total Energy              =    -653.2502332951165727 [Eh]

	 ================> DF-SCS-MP2 Energies <==================
	-----------------------------------------------------------
	 SCS Same-Spin Scale       =       0.3333333333333333 [-]
	 SCS Opposite-Spin Scale   =       1.2000000000000000 [-]
	 SCS Same-Spin Energy      =      -0.2228990920536761 [Eh]
	 SCS Opposite-Spin Energy  =      -2.4147139983227883 [Eh]
	 SCS Correlation Energy    =      -2.6376130903764672 [Eh]
	 SCS Total Energy          =    -653.2068874440629997 [Eh]
	-----------------------------------------------------------

  -Total Gradient:
     Atom            X                  Y                   Z
    ------   -----------------  -----------------  -----------------
       1        0.001588102986     0.002972552494     0.000072683067
       2        0.000012198250    -0.000001713907     0.000017162399
       3        0.000166309949     0.002754749065    -0.002026017040
       4        0.000006908601     0.000000270240     0.000000273222
       5       -0.000004838964    -0.000013517188    -0.000005849098
       6       -0.000023255800    -0.000016100074    -0.000018235156
       7       -0.000010152842     0.000015233378     0.000005282801
       8       -0.002314566122    -0.003082132457    -0.001117424511
       9        0.000558388043    -0.002657417095     0.003110239314
      10        0.000006116335     0.000037207797    -0.000019155428
      11        0.000004427469     0.000025734740    -0.000034546501
      12        0.000020004579     0.000003122540     0.000008840631
      13       -0.000004977616    -0.000010348921     0.000015531655
      14       -0.000005445093    -0.000011078836     0.000002923349
      15       -0.000008999870     0.000000133009     0.000009494516
      16        0.000002632154    -0.000000715919    -0.000006404768
      17        0.000005990738    -0.000012910715    -0.000011388231
      18        0.000003216215    -0.000010010079    -0.000001053825
      19        0.000003775156    -0.000000916966    -0.000005678429
      20        0.000000614749     0.000004529873     0.000001726165
      21       -0.000000843404     0.000003673041     0.000007671968
      22       -0.000006124045     0.000003857496     0.000006133859
      23        0.000000518536    -0.000004201504    -0.000012209950

  **** Optimization is complete! (in 12 steps) ****
    Final optimized geometry and variables:
    Molecular point group: c1

    Geometry (in Angstrom), charge = 1, multiplicity = 1:

    C           -1.374904420270     0.691512313074    -0.742585567938
    C           -2.419096370343     1.301791443557    -0.086410225283
    C            2.128958600839    -0.255776624689    -0.335358106896
    C            0.607525815236    -1.231804319719    -1.902359578352
    C           -1.402522246920     0.755307093351     2.031902944286
    C            3.174504830627    -0.778867927076    -1.055215944292
    C            1.675227978976    -1.739210349657    -2.600549698756
    C           -0.316839810427     0.100928388438    -0.040751913712
    C            0.807738191809    -0.480229748712    -0.739352883674
    C           -2.441864304573     1.328922639225     1.307374681923
    C           -0.362411271895     0.173078748364     1.347720620720
    N            2.920457206686    -1.502038178693    -2.158205547822
    O           -3.495239506170     1.928539464339     1.884716594922
    F            0.633021004285    -0.387023029681     2.056900309451
    H           -1.354415501630     0.697452396659    -1.822326157083
    H           -3.222758182393     1.770822296914    -0.630465248981
    H            2.344304856546     0.335211377895     0.538483641425
    H           -0.390282422207    -1.443925680318    -2.251135961647
    H           -1.391652019855     0.751679401280     3.110914975446
    H            4.209595656385    -0.633895864828    -0.794876178473
    H            1.578727577943    -2.335549678121    -3.492400647145
    H            3.700576503403    -1.883429274743    -2.678071608738
    H           -3.421669894264     1.899551756518     2.845206726484

*** Psi4 exiting successfully. Buy a developer a beer!
