                               Psi4 1.1 release

  ==> Input File <==

--------------------------------------------------------------------------

memory 5 Gb

molecule phepyrOH_cation {
  symmetry C1
  1 1
  C      1.885   -1.036   -0.112
  C      2.878   -1.652   2.002
  C      0.807   -0.463   0.561
  C      1.800   -1.079   2.676
  C      4.083   -2.205   -1.481
  C      5.074   -2.819   0.628
  C      5.169   -2.783   -2.124
  C      6.134   -3.382   -0.069
  C      2.921   -1.631   0.608
  C      4.040   -2.225   -0.090
  C      0.764   -0.484   1.955
  N      6.150   -3.348   -1.408
  O      -0.288   0.076   2.612
  H      1.904   -1.012   -1.199
  H      3.678   -2.112   2.578
  H      0.003   -0.001   -0.006
  H      1.772   -1.098   3.762
  H      3.291   -1.748   -2.066
  H      5.065   -2.850   1.713
  H      5.287   -2.812   -3.198
  H      6.978   -3.863   0.404
  H      6.938   -3.768   -1.901
  H      -0.175   -0.018   3.571
  units Angstrom
}

dih_string = "1 9 10 5 0.001"
set optking fixed_dihedral = $dih_string

optimize('MP2/aug-cc-PVTZ')
--------------------------------------------------------------------------

    Molecular point group: c1
  Charge       = 1
  Multiplicity = 1
  Basis Set: AUG-CC-PVTZ
    Blend: AUG-CC-PVTZ
  Basis Set: (AUG-CC-PVTZ AUX)
    Blend: AUG-CC-PVTZ-JKFIT
  @DF-RHF Final Energy:  -551.67164669414979
    Total Energy =                       -551.6716466941497856
  Basis Set: (AUG-CC-PVTZ AUX)
    Blend: AUG-CC-PVTZ-RI
    Molecular point group: c1
  Basis Set: AUG-CC-PVTZ
    Blend: AUG-CC-PVTZ
  Basis Set: (AUG-CC-PVTZ AUX)
    Blend: AUG-CC-PVTZ-JKFIT
  Basis Set: (AUG-CC-PVTZ AUX)
    Blend: AUG-CC-PVTZ-JKFIT
	 Reference Energy          =    -551.6716466941497856 [Eh]
	 Singles Energy            =      -0.0000000000000001 [Eh]
	 Same-Spin Energy          =      -0.5971050769346047 [Eh]
	 Opposite-Spin Energy      =      -1.8275687554224676 [Eh]
	 Correlation Energy        =      -2.4246738323570725 [Eh]
	 Total Energy              =    -554.0963205265068154 [Eh]
	 SCS Total Energy          =    -554.0637642263016005 [Eh]
  @DF-RHF Final Energy:  -551.67916549514780
    Total Energy =                       -551.6791654951477994
  @DF-RHF Final Energy:  -551.68191372047875
    Total Energy =                       -551.6819137204787467
  @DF-RHF Final Energy:  -551.68190647379618
    Total Energy =                       -551.6819064737961753
  Charge       = 1
  Multiplicity = 1
  Basis Set: AUG-CC-PVTZ
    Blend: AUG-CC-PVTZ
  Basis Set: (AUG-CC-PVTZ AUX)
    Blend: AUG-CC-PVTZ-JKFIT

    Orbital Energies (a.u.)
    -----------------------

    Doubly Occupied:

       1A    -20.713643     2A    -15.821878     3A    -11.475610
       4A    -11.475509     5A    -11.450693     6A    -11.440617
       7A    -11.406176     8A    -11.405775     9A    -11.383693
      10A    -11.379860    11A    -11.375314    12A    -11.357744
      13A    -11.350884    14A     -1.537138    15A     -1.502336
      16A     -1.317596    17A     -1.267357    18A     -1.233901
      19A     -1.159592    20A     -1.158343    21A     -1.059748
      22A     -1.058126    23A     -0.981423    24A     -0.960134
      25A     -0.956425    26A     -0.876765    27A     -0.861760
      28A     -0.855053    29A     -0.820763    30A     -0.798370
      31A     -0.779195    32A     -0.769652    33A     -0.761491
      34A     -0.735185    35A     -0.720685    36A     -0.717028
      37A     -0.701632    38A     -0.686928    39A     -0.666009
      40A     -0.646919    41A     -0.619817    42A     -0.568465
      43A     -0.536910    44A     -0.476664    45A     -0.437005

  @DF-RHF Final Energy:  -551.68190341879529

   => Energetics <=

    Nuclear Repulsion Energy =            712.9912462379342060
    One-Electron Energy =               -2148.8146764256489405
    Two-Electron Energy =                 884.1415267689193342
    DFT Exchange-Correlation Energy =       0.0000000000000000
    Empirical Dispersion Energy =           0.0000000000000000
    PCM Polarization Energy =               0.0000000000000000
    EFP Energy =                            0.0000000000000000
    Total Energy =                       -551.6819034187952866
  Basis Set: (AUG-CC-PVTZ AUX)
    Blend: AUG-CC-PVTZ-RI
    Molecular point group: c1
  Basis Set: AUG-CC-PVTZ
    Blend: AUG-CC-PVTZ
  Basis Set: (AUG-CC-PVTZ AUX)
    Blend: AUG-CC-PVTZ-JKFIT
  Basis Set: (AUG-CC-PVTZ AUX)
    Blend: AUG-CC-PVTZ-JKFIT
	 Reference Energy          =    -551.6819034187952866 [Eh]
	 Singles Energy            =      -0.0000000000000022 [Eh]
	 Same-Spin Energy          =      -0.5955703553130799 [Eh]
	 Opposite-Spin Energy      =      -1.8244343071432276 [Eh]
	 Correlation Energy        =      -2.4200046624563099 [Eh]
	 Total Energy              =    -554.1019080812516222 [Eh]

	 ================> DF-SCS-MP2 Energies <==================
	-----------------------------------------------------------
	 SCS Same-Spin Scale       =       0.3333333333333333 [-]
	 SCS Opposite-Spin Scale   =       1.2000000000000000 [-]
	 SCS Same-Spin Energy      =      -0.1985234517710266 [Eh]
	 SCS Opposite-Spin Energy  =      -2.1893211685718730 [Eh]
	 SCS Correlation Energy    =      -2.3878446203429018 [Eh]
	 SCS Total Energy          =    -554.0697480391381760 [Eh]
	-----------------------------------------------------------

  -Total Gradient:
     Atom            X                  Y                   Z
    ------   -----------------  -----------------  -----------------
       1        0.000119756346    -0.000041380828     0.000062290547
       2       -0.000001174509     0.000017510109    -0.000004196640
       3       -0.000113438800     0.000031212010     0.000035039416
       4        0.000036369991    -0.000040898493    -0.000015778882
       5        0.000074358623    -0.000025867377    -0.000016770877
       6        0.000027405964     0.000006474658    -0.000048118465
       7       -0.000065043828     0.000029706988    -0.000052605893
       8        0.000006812181    -0.000015563962     0.000077141360
       9       -0.000024112587    -0.000012344089    -0.000091446501
      10       -0.000074695277    -0.000010702334     0.000031319752
      11        0.000017730423     0.000037081532     0.000021527313
      12        0.000002952309     0.000008336148     0.000007000150
      13        0.000006957745    -0.000010843029    -0.000004815547
      14       -0.000047977642     0.000036522194    -0.000001568152
      15        0.000027967891    -0.000005296532     0.000035134471
      16        0.000009790951    -0.000007734526    -0.000029013627
      17       -0.000025483290     0.000009466568     0.000008341363
      18       -0.000001840074     0.000005496374    -0.000007497937
      19       -0.000019321061     0.000012555953     0.000036743581
      20        0.000011790465    -0.000007151194     0.000003877968
      21        0.000003398805    -0.000001916064    -0.000012367727
      22        0.000010509558    -0.000003924567    -0.000006533055
      23        0.000017285823    -0.000010739545    -0.000027702619

  **** Optimization is complete! (in 5 steps) ****
    Final optimized geometry and variables:
    Molecular point group: c1

    Geometry (in Angstrom), charge = 1, multiplicity = 1:

    C           -1.294796476850     0.732016578113    -0.541159434815
    C           -0.301446045400     0.116146676396     1.552639344777
    C           -2.358706904319     1.297742407868     0.123607656303
    C           -1.363885178400     0.680843734452     2.225662987286
    C            0.960399453478    -0.467173494441    -1.951129937349
    C            1.946340114567    -1.078305431985     0.127394745804
    C            2.024197262038    -1.032986659531    -2.603972429029
    C            2.996978310079    -1.635974529208    -0.553104276530
    C           -0.238724173336     0.126512261273     0.154108313662
    C            0.877753076566    -0.467010373102    -0.548907086728
    C           -2.403386979697     1.277589185422     1.515921047249
    N            3.013571923820    -1.601702165928    -1.895747351274
    O           -3.468955676900     1.846847027987     2.098072225658
    H           -1.303405565063     0.771612068412    -1.617569589276
    H            0.479527888926    -0.333843135324     2.142723452667
    H           -3.168680565322     1.762248892924    -0.416957858311
    H           -1.388119102986     0.659358173583     3.305835973326
    H            0.191925770234    -0.023450159804    -2.558756578796
    H            1.975768593470    -1.129163843665     1.201348627340
    H            2.119298905045    -1.050713474068    -3.677138725337
    H            3.832062182793    -2.112375135982    -0.066564340199
    H            3.793908439131    -2.016265199339    -2.387806713778
    H           -3.407032064420     1.781612949095     3.057916739137

*** Psi4 exiting successfully. Buy a developer a beer!
