                              Psi4 1.0.0 Driver

  ==> Input File <==

--------------------------------------------------------------------------

memory 1000 mb

molecule butane {
  symmetry C1
  0 1
  H      1.604   0.760   -8.260
  H      1.745   2.388   -8.880
  H      2.043   1.024   -9.930
  C      2.142   1.395   -8.932
  H      4.169   2.051   -9.210
  H      3.731   1.788   -7.539
  C      3.631   1.416   -8.537
  H      5.243   0.033   -8.859
  H      4.082   -0.495   -7.665
  C      4.203   -0.012   -8.612
  H      3.851   -1.802   -9.746
  H      3.574   -0.327   -10.641
  H      2.413   -0.856   -9.448
  C      3.453   -0.810   -9.694
  units Angstrom
}

dih_string = "4 7 10 14 30"
set optking fixed_dihedral = $dih_string

optimize('B3LYP/cc-PVDZ')
--------------------------------------------------------------------------

    Molecular point group: c1
  Charge       = 0
  Multiplicity = 1
  Basis Set: CC-PVDZ
   => B3LYP Composite Functional <=
  Basis Set:
  @DF-RKS Final Energy:  -158.43814418153289
    Total Energy =                       -158.4381441815328913
    Molecular point group: c1
  Basis Set: CC-PVDZ
  Basis Set:
   => B3LYP Composite Functional <=
  Basis Set: CC-PVDZ
   => B3LYP Composite Functional <=
  Basis Set:
  @DF-RKS Final Energy:  -158.44668345613258
    Total Energy =                       -158.4466834561325754
  Basis Set: CC-PVDZ
  Basis Set:
   => B3LYP Composite Functional <=
  Basis Set: CC-PVDZ
   => B3LYP Composite Functional <=
  Basis Set:
  @DF-RKS Final Energy:  -158.45104069411349
    Total Energy =                       -158.4510406941134875
  Basis Set: CC-PVDZ
  Basis Set:
  @DF-RKS Final Energy:  -158.45280594056277
    Total Energy =                       -158.4528059405627687
  @DF-RKS Final Energy:  -158.45343726517237
    Total Energy =                       -158.4534372651723686
  @DF-RKS Final Energy:  -158.45361238154391
    Total Energy =                       -158.4536123815439055
  @DF-RKS Final Energy:  -158.45364747894391
    Total Energy =                       -158.4536474789439069
  @DF-RKS Final Energy:  -158.45364194067821
    Total Energy =                       -158.4536419406782102
  @DF-RKS Final Energy:  -158.45363763827160
    Total Energy =                       -158.4536376382716014
  @DF-RKS Final Energy:  -158.45363614161550
    Total Energy =                       -158.4536361416155046
   => B3LYP Composite Functional <=
  Basis Set:
  @DF-RKS Final Energy:  -158.45357457036761
    Total Energy =                       -158.4535745703676071
  Basis Set: CC-PVDZ
  Basis Set:
   => B3LYP Composite Functional <=
  Basis Set: CC-PVDZ
   => B3LYP Composite Functional <=
  Basis Set:
  @DF-RKS Final Energy:  -158.45360475344398
    Total Energy =                       -158.4536047534439831
  Basis Set: CC-PVDZ
  Basis Set:
   => B3LYP Composite Functional <=
  Charge       = 0
  Multiplicity = 1
  Basis Set: CC-PVDZ
   => B3LYP Composite Functional <=
  Basis Set:

    Orbital Energies (a.u.)
    -----------------------

    Doubly Occupied:

       1A    -10.180496     2A    -10.180347     3A    -10.175374
       4A    -10.175354     5A     -0.788192     6A     -0.715762
       7A     -0.640470     8A     -0.557452     9A     -0.457585
      10A     -0.446684    11A     -0.407616    12A     -0.386974
      13A     -0.374355    14A     -0.357309    15A     -0.326922
      16A     -0.321919    17A     -0.308863

  @DF-RKS Final Energy:  -158.45360987939912

   => Energetics <=

    Nuclear Repulsion Energy =            131.9307780999969282
    One-Electron Energy =                -472.3675924358312841
    Two-Electron Energy =                 202.5664441128032252
    DFT Exchange-Correlation Energy =     -20.5832396563679829
    Empirical Dispersion Energy =           0.0000000000000000
    PCM Polarization Energy =               0.0000000000000000
    EFP Energy =                            0.0000000000000000
    Total Energy =                       -158.4536098793991243
    Molecular point group: c1
  Basis Set: CC-PVDZ
  Basis Set:
   => B3LYP Composite Functional <=

  -Total Gradient:
     Atom            X                  Y                   Z
    ------   -----------------  -----------------  -----------------
       1       -0.000006190809    -0.000001477157     0.000006067152
       2       -0.000015769189     0.000018767767    -0.000000963833
       3       -0.000003044823    -0.000007328555    -0.000010657757
       4        0.000815073700     0.000695631171    -0.004031874158
       5       -0.000006874637    -0.000014883320    -0.000028789430
       6        0.000021730166     0.000023312408     0.000006569611
       7       -0.002327191011    -0.001580551560     0.007139737175
       8        0.000024152765    -0.000006566908     0.000020896239
       9       -0.000032679930     0.000000033522     0.000005043351
      10        0.004158647832     0.002256588255    -0.006042126473
      11        0.000003317322    -0.000023465348    -0.000006536125
      12        0.000002106570    -0.000000002546    -0.000008401599
      13       -0.000012980776     0.000001456398     0.000000974778
      14       -0.002613931584    -0.001359162637     0.002953878309

  **** Optimization is complete! (in 13 steps) ****
    Final optimized geometry and variables:
    Molecular point group: c1

    Geometry (in Angstrom), charge = 0, multiplicity = 1:

    H           -1.842477383940     0.408360760995     0.785842556964
    H           -1.574936318278     2.083426514469     0.257451235952
    H           -1.485941659759     0.757635464772    -0.921201191294
    C           -1.239250466013     1.043387737533     0.113353696591
    H            0.789639461627     1.585777911646    -0.309512660754
    H            0.486558232595     1.315792392390     1.401888372512
    C            0.261509371011     0.918315459065     0.397276606427
    H            1.937431867479    -0.420782334044     0.051425882241
    H            0.800935964065    -0.998491937913     1.263148294230
    C            0.859992202966    -0.504223876772     0.275124757426
    H            0.704078044543    -2.404973002893    -0.779581060988
    H            0.210515089704    -1.010927398891    -1.764291188065
    H           -0.865324228431    -1.625794404552    -0.488510200289
    C            0.188256409420    -1.431445852623    -0.743481842876

*** Psi4 exiting successfully. Buy a developer a beer!
