                               Psi4 1.1 release

  ==> Input File <==

--------------------------------------------------------------------------

memory 5 Gb

molecule phepyrFOH_neutral {
  symmetry C1
  0 1
  C      1.885   -1.036   -0.112
  C      0.807   -0.463   0.561
  C      3.825   -3.269   -0.988
  C      5.328   -1.753   0.119
  C      1.800   -1.079   2.676
  C      4.927   -3.802   -1.637
  C      6.363   -2.354   -0.579
  C      2.921   -1.631   0.608
  C      4.038   -2.225   -0.095
  C      0.764   -0.484   1.955
  C      2.878   -1.652   2.002
  N      6.195   -3.370   -1.455
  O      -0.289   0.076   2.612
  F      3.866   -2.220   2.709
  H      1.904   -1.012   -1.199
  H      0.002   -0.002   -0.006
  H      2.833   -3.663   -1.183
  H      5.532   -0.940   0.809
  H      1.772   -1.099   3.762
  H      4.814   -4.616   -2.345
  H      7.387   -2.023   -0.446
  H      -1.024   0.232   1.998
  units Angstrom
}

dih_string = "2 10 13 22 15"
set optking fixed_dihedral = $dih_string

optimize('MP2/aug-cc-PVTZ')
--------------------------------------------------------------------------

    Molecular point group: c1
  Charge       = 0
  Multiplicity = 1
  Basis Set: AUG-CC-PVTZ
    Blend: AUG-CC-PVTZ
  Basis Set: (AUG-CC-PVTZ AUX)
    Blend: AUG-CC-PVTZ-JKFIT

    Orbital Energies (a.u.)
    -----------------------

    Doubly Occupied:

       1A    -26.326054     2A    -20.607928     3A    -15.565460
       4A    -11.348561     5A    -11.327362     6A    -11.275116
       7A    -11.274224     8A    -11.266368     9A    -11.265511
      10A    -11.253428    11A    -11.250981    12A    -11.249346
      13A    -11.239883    14A    -11.238387    15A     -1.644080
      16A     -1.422911    17A     -1.250606    18A     -1.181923
      19A     -1.110272    20A     -1.041565    21A     -1.034640
      22A     -1.019299    23A     -0.890811    24A     -0.876609
      25A     -0.852894    26A     -0.827612    27A     -0.780739
      28A     -0.735714    29A     -0.721904    30A     -0.710271
      31A     -0.694568    32A     -0.664964    33A     -0.662761
      34A     -0.654680    35A     -0.630673    36A     -0.612996
      37A     -0.606341    38A     -0.599261    39A     -0.577934
      40A     -0.549528    41A     -0.536809    42A     -0.525171
      43A     -0.520964    44A     -0.494729    45A     -0.419554
      46A     -0.387246    47A     -0.359557    48A     -0.349338
      49A     -0.325405

  @DF-RHF Final Energy:  -650.17323038191228

   => Energetics <=

    Nuclear Repulsion Energy =            813.8811866008145444
    One-Electron Energy =               -2502.5829572966890737
    Two-Electron Energy =                1038.5285403139623668
    DFT Exchange-Correlation Energy =       0.0000000000000000
    Empirical Dispersion Energy =           0.0000000000000000
    PCM Polarization Energy =               0.0000000000000000
    EFP Energy =                            0.0000000000000000
    Total Energy =                       -650.1732303819121626
  Basis Set: (AUG-CC-PVTZ AUX)
    Blend: AUG-CC-PVTZ-RI
    Molecular point group: c1

    Geometry (in Angstrom), charge = 0, multiplicity = 1:

       Center              X                  Y                   Z               Mass
    ------------   -----------------  -----------------  -----------------  -----------------
           C         -1.317217627963     0.753668320830    -0.791109700143    12.000000000000
           C         -2.395217627963     1.326668320830    -0.118109700143    12.000000000000
           C          0.622782372037    -1.479331679170    -1.667109700143    12.000000000000
           C          2.125782372037     0.036668320830    -0.560109700143    12.000000000000
           C         -1.402217627963     0.710668320830     1.996890299857    12.000000000000
           C          1.724782372037    -2.012331679170    -2.316109700143    12.000000000000
           C          3.160782372037    -0.564331679170    -1.258109700143    12.000000000000
           C         -0.281217627963     0.158668320830    -0.071109700143    12.000000000000
           C          0.835782372037    -0.435331679170    -0.774109700143    12.000000000000
           C         -2.438217627963     1.305668320830     1.275890299857    12.000000000000
           C         -0.324217627963     0.137668320830     1.322890299857    12.000000000000
           N          2.992782372037    -1.580331679170    -2.134109700143    14.003074004780
           O         -3.491217627963     1.865668320830     1.932890299857    15.994914619560
           F          0.663782372037    -0.430331679170     2.029890299857    18.998403224000
           H         -1.298217627963     0.777668320830    -1.878109700143     1.007825032070
           H         -3.200217627963     1.787668320830    -0.685109700143     1.007825032070
           H         -0.369217627963    -1.873331679170    -1.862109700143     1.007825032070
           H          2.329782372037     0.849668320830     0.129890299857     1.007825032070
           H         -1.430217627963     0.690668320830     3.082890299857     1.007825032070
           H          1.611782372037    -2.826331679170    -3.024109700143     1.007825032070
           H          4.184782372037    -0.233331679170    -1.125109700143     1.007825032070
           H         -4.226217627963     2.021668320830     1.318890299857     1.007825032070

  Basis Set: AUG-CC-PVTZ
    Blend: AUG-CC-PVTZ
  Basis Set: (AUG-CC-PVTZ AUX)
    Blend: AUG-CC-PVTZ-JKFIT
  Basis Set: (AUG-CC-PVTZ AUX)
    Blend: AUG-CC-PVTZ-JKFIT
	 Reference Energy          =    -650.1732303819122762 [Eh]
	 Singles Energy            =      -0.0000000000000002 [Eh]
	 Same-Spin Energy          =      -0.6775088128728950 [Eh]
	 Opposite-Spin Energy      =      -2.0193199514839884 [Eh]
	 Correlation Energy        =      -2.6968287643568836 [Eh]
	 Total Energy              =    -652.8700591462691136 [Eh]

	 ================> DF-SCS-MP2 Energies <==================
	-----------------------------------------------------------
	 SCS Same-Spin Scale       =       0.3333333333333333 [-]
	 SCS Opposite-Spin Scale   =       1.2000000000000000 [-]
	 SCS Same-Spin Energy      =      -0.2258362709576316 [Eh]
	 SCS Opposite-Spin Energy  =      -2.4231839417807861 [Eh]
	 SCS Correlation Energy    =      -2.6490202127384177 [Eh]
	 SCS Total Energy          =    -652.8222505946506544 [Eh]
	-----------------------------------------------------------

  -Total Gradient:
     Atom            X                  Y                   Z
    ------   -----------------  -----------------  -----------------
       1        0.010446185913    -0.002156873258    -0.011131924591
       2       -0.005573408509     0.003566583803     0.004314380768
       3       -0.007277777782    -0.000995594231     0.002992983476
       4       -0.003819747531     0.005891433856     0.003656911832
       5       -0.002562720339     0.000518235679    -0.006685104932
       6       -0.014028984026    -0.001013984609     0.002647662702
       7       -0.003120642042     0.009510520091     0.008714743092
       8       -0.001025892992     0.000481041183    -0.001996147453
       9       -0.001473057927     0.000943699974    -0.000549556161
      10        0.000222705255     0.002041334111     0.013450642022
      11        0.022604623577    -0.016572178850     0.006087574923
      12        0.013541449579    -0.006714141865    -0.008423064396
      13        0.002140980519     0.001861725408    -0.006660879797
      14        0.002599166478    -0.000766029948     0.002656533972
      15       -0.003191733992     0.001495344222    -0.006065941619
      16       -0.003182008382     0.001182714020    -0.003399827697
      17       -0.003136879440    -0.002579619233    -0.002783393743
      18        0.002905716039     0.003642528580     0.002792472643
      19        0.000756059752    -0.000011947499     0.005537326055
      20        0.000385038859    -0.001760713319    -0.001989880394
      21        0.002504673777     0.000173397686     0.000080055015
      22       -0.009713746795     0.001262524198    -0.003245565705

*** Psi4 exiting successfully. Buy a developer a beer!
