                               Psi4 1.1 release

  ==> Input File <==

--------------------------------------------------------------------------

memory 5 Gb

molecule phepyrFOH_cation {
  symmetry C1
  1 1
  C      1.885   -1.036   -0.112
  C      0.807   -0.463   0.561
  C      4.830   -1.443   -0.930
  C      4.321   -3.578   0.063
  C      1.800   -1.079   2.676
  C      5.894   -2.040   -1.592
  C      5.398   -4.120   -0.624
  C      2.921   -1.631   0.608
  C      4.038   -2.225   -0.095
  C      0.764   -0.484   1.955
  C      2.878   -1.652   2.002
  N      6.144   -3.345   -1.422
  O      -0.289   0.076   2.612
  F      3.866   -2.220   2.709
  H      1.904   -1.012   -1.199
  H      0.002   -0.002   -0.006
  H      4.632   -0.385   -1.072
  H      3.719   -4.212   0.708
  H      1.772   -1.099   3.762
  H      6.561   -1.511   -2.259
  H      5.691   -5.159   -0.561
  H      6.930   -3.764   -1.918
  H      -0.074   0.196   3.551
  units Angstrom
}

dih_string = "2 10 13 23 195"
set optking fixed_dihedral = $dih_string

optimize('MP2/aug-cc-PVTZ')
--------------------------------------------------------------------------

    Molecular point group: c1
  Charge       = 1
  Multiplicity = 1
  Basis Set: AUG-CC-PVTZ
    Blend: AUG-CC-PVTZ
  Basis Set: (AUG-CC-PVTZ AUX)
    Blend: AUG-CC-PVTZ-JKFIT
  @DF-RHF Final Energy:  -650.55919286245080
    Total Energy =                       -650.5591928624508000
  Basis Set: (AUG-CC-PVTZ AUX)
    Blend: AUG-CC-PVTZ-RI
    Molecular point group: c1
  Basis Set: AUG-CC-PVTZ
    Blend: AUG-CC-PVTZ
  Basis Set: (AUG-CC-PVTZ AUX)
    Blend: AUG-CC-PVTZ-JKFIT
  Basis Set: (AUG-CC-PVTZ AUX)
    Blend: AUG-CC-PVTZ-JKFIT
	 Reference Energy          =    -650.5591928624508000 [Eh]
	 Singles Energy            =      -0.0000000000000003 [Eh]
	 Same-Spin Energy          =      -0.6691124391290809 [Eh]
	 Opposite-Spin Energy      =      -2.0140435162018084 [Eh]
	 Correlation Energy        =      -2.6831559553308897 [Eh]
	 Total Energy              =    -653.2423488177817035 [Eh]
	 SCS Total Energy          =    -653.1990825616026086 [Eh]
  @DF-RHF Final Energy:  -650.56468685484504
    Total Energy =                       -650.5646868548451494
  @DF-RHF Final Energy:  -650.56632654320708
    Total Energy =                       -650.5663265432069693
  @DF-RHF Final Energy:  -650.56685114106517
    Total Energy =                       -650.5668511410651718
  @DF-RHF Final Energy:  -650.56722737055782
    Total Energy =                       -650.5672273705579300
  @DF-RHF Final Energy:  -650.56766369873628
    Total Energy =                       -650.5676636987361690
  @DF-RHF Final Energy:  -650.56816697564693
    Total Energy =                       -650.5681669756468182
  @DF-RHF Final Energy:  -650.56855511723666
    Total Energy =                       -650.5685551172366559
  @DF-RHF Final Energy:  -650.56890089366004
    Total Energy =                       -650.5689008936601567
  @DF-RHF Final Energy:  -650.56917266337757
    Total Energy =                       -650.5691726633776852
  @DF-RHF Final Energy:  -650.56936144268616
    Total Energy =                       -650.5693614426861586
  @DF-RHF Final Energy:  -650.56946325183537
    Total Energy =                       -650.5694632518352591
  @DF-RHF Final Energy:  -650.56947704857873
    Total Energy =                       -650.5694770485786194
  @DF-RHF Final Energy:  -650.56949374623707
    Total Energy =                       -650.5694937462369580
  @DF-RHF Final Energy:  -650.56951214098353
    Total Energy =                       -650.5695121409835338
  Charge       = 1
  Multiplicity = 1
  Basis Set: AUG-CC-PVTZ
    Blend: AUG-CC-PVTZ
  Basis Set: (AUG-CC-PVTZ AUX)
    Blend: AUG-CC-PVTZ-JKFIT

    Orbital Energies (a.u.)
    -----------------------

    Doubly Occupied:

       1A    -26.446919     2A    -20.716538     3A    -15.829563
       4A    -11.480315     5A    -11.478530     6A    -11.475242
       7A    -11.454107     8A    -11.448297     9A    -11.411826
      10A    -11.408491    11A    -11.387771    12A    -11.382161
      13A    -11.362642    14A    -11.353594    15A     -1.767039
      16A     -1.540158    17A     -1.507858    18A     -1.323777
      19A     -1.275913    20A     -1.237944    21A     -1.170754
      22A     -1.161429    23A     -1.065800    24A     -1.063065
      25A     -0.997926    26A     -0.973703    27A     -0.959981
      28A     -0.901605    29A     -0.872439    30A     -0.864553
      31A     -0.855658    32A     -0.833999    33A     -0.819320
      34A     -0.807435    35A     -0.790937    36A     -0.773038
      37A     -0.767710    38A     -0.753051    39A     -0.730900
      40A     -0.723385    41A     -0.706637    42A     -0.690402
      43A     -0.666929    44A     -0.644767    45A     -0.639081
      46A     -0.574568    47A     -0.538127    48A     -0.479986
      49A     -0.446935

  @DF-RHF Final Energy:  -650.56952526995997

   => Energetics <=

    Nuclear Repulsion Energy =            831.2001991607966147
    One-Electron Energy =               -2522.4138372556058130
    Two-Electron Energy =                1040.6441128248491168
    DFT Exchange-Correlation Energy =       0.0000000000000000
    Empirical Dispersion Energy =           0.0000000000000000
    PCM Polarization Energy =               0.0000000000000000
    EFP Energy =                            0.0000000000000000
    Total Energy =                       -650.5695252699599678
  Basis Set: (AUG-CC-PVTZ AUX)
    Blend: AUG-CC-PVTZ-RI
    Molecular point group: c1
  Basis Set: AUG-CC-PVTZ
    Blend: AUG-CC-PVTZ
  Basis Set: (AUG-CC-PVTZ AUX)
    Blend: AUG-CC-PVTZ-JKFIT
  Basis Set: (AUG-CC-PVTZ AUX)
    Blend: AUG-CC-PVTZ-JKFIT
	 Reference Energy          =    -650.5695252699599678 [Eh]
	 Singles Energy            =      -0.0000000000000002 [Eh]
	 Same-Spin Energy          =      -0.6687465931519680 [Eh]
	 Opposite-Spin Energy      =      -2.0122788093730781 [Eh]
	 Correlation Energy        =      -2.6810254025250466 [Eh]
	 Total Energy              =    -653.2505506724850193 [Eh]

	 ================> DF-SCS-MP2 Energies <==================
	-----------------------------------------------------------
	 SCS Same-Spin Scale       =       0.3333333333333333 [-]
	 SCS Opposite-Spin Scale   =       1.2000000000000000 [-]
	 SCS Same-Spin Energy      =      -0.2229155310506560 [Eh]
	 SCS Opposite-Spin Energy  =      -2.4147345712476938 [Eh]
	 SCS Correlation Energy    =      -2.6376501022983501 [Eh]
	 SCS Total Energy          =    -653.2071753722583480 [Eh]
	-----------------------------------------------------------

  -Total Gradient:
     Atom            X                  Y                   Z
    ------   -----------------  -----------------  -----------------
       1        0.000008545432    -0.000020760761     0.000008468650
       2        0.001179972042     0.001555363905     0.000465015239
       3       -0.000005596801    -0.000003402244     0.000040603410
       4       -0.000026479865     0.000021705420     0.000004832430
       5       -0.000016803034     0.000002872649     0.000013240046
       6        0.000020942424    -0.000026848441    -0.000000507751
       7        0.000022944408     0.000001652315    -0.000028270283
       8       -0.000023015906     0.000028954670     0.000000041567
       9        0.000029322528    -0.000023725248    -0.000056364637
      10       -0.001341944068    -0.001676492624    -0.000675795839
      11        0.000009971602     0.000001029712    -0.000016364685
      12       -0.000029553713     0.000020644446     0.000016184242
      13       -0.001234196532    -0.002282151336     0.000263111760
      14       -0.000018273753     0.000015938574     0.000013282530
      15       -0.000004206008     0.000004769285     0.000012691546
      16        0.000006126286    -0.000003834859     0.000014451341
      17        0.000002200414    -0.000024367957    -0.000000823203
      18        0.000017087746    -0.000004597175    -0.000020995692
      19       -0.000005382287     0.000004430492    -0.000015590158
      20       -0.000006578037    -0.000008021315     0.000009884295
      21       -0.000003638215     0.000015457150    -0.000003063778
      22        0.000002827212     0.000000921504     0.000002559977
      23        0.001415728134     0.002400461839    -0.000046591001

  **** Optimization is complete! (in 16 steps) ****
    Final optimized geometry and variables:
    Molecular point group: c1

    Geometry (in Angstrom), charge = 1, multiplicity = 1:

    C           -1.135790744111     1.068156186248    -0.700409614378
    C           -2.182361880331     1.676682840620    -0.048841640959
    C            1.433110120934     0.208120702095    -1.840360841629
    C            1.337537157127    -1.692045127773    -0.394942349578
    C           -1.526933873180     0.592135882599     1.999955943010
    C            2.458061081728    -0.386407223208    -2.531442627879
    C            2.363225262288    -2.259484173912    -1.109036664163
    C           -0.256917487840     0.197995493927    -0.038897263978
    C            0.835879948329    -0.430368201753    -0.744856911956
    C           -2.385697649003     1.439277978763     1.309907712502
    C           -0.496139267785    -0.009760667782     1.318682708093
    N            2.894049516474    -1.597800274004    -2.149701467969
    O           -3.426362616561     2.059835122980     1.888292285889
    F            0.336410492109    -0.798538166452     2.019642908794
    H           -1.016222172700     1.237727455020    -1.759503832402
    H           -2.861065476812     2.330693876483    -0.571734984656
    H            1.118932647024     1.193573453300    -2.141822317125
    H            0.916291198169    -2.248015055971     0.423682518136
    H           -1.644887744117     0.394395582999     3.054040696479
    H            2.954765406563     0.069997188526    -3.371200155156
    H            2.774638896905    -3.229833657573    -0.886777755197
    H            3.652921453576    -2.026658006774    -2.663615168719
    H           -3.355395861490     2.026621498739     2.848851995194

*** Psi4 exiting successfully. Buy a developer a beer!
