                               Psi4 1.1 release

  ==> Input File <==

--------------------------------------------------------------------------

memory 5 Gb

molecule phepyrOH_neutral {
  symmetry C1
  0 1
  C      1.885   -1.036   -0.112
  C      2.878   -1.652   2.002
  C      0.807   -0.463   0.561
  C      1.800   -1.079   2.676
  C      5.298   -2.251   0.501
  C      3.861   -2.774   -1.355
  C      6.336   -2.833   -0.208
  C      4.963   -3.332   -1.982
  C      2.921   -1.631   0.608
  C      4.040   -2.225   -0.090
  C      0.764   -0.484   1.955
  N      6.201   -3.377   -1.439
  O      -0.288   0.076   2.612
  H      1.904   -1.012   -1.199
  H      3.678   -2.112   2.578
  H      0.003   -0.001   -0.006
  H      1.772   -1.098   3.762
  H      5.476   -1.834   1.487
  H      2.894   -2.771   -1.848
  H      7.336   -2.881   0.210
  H      4.876   -3.773   -2.969
  H      -0.175   -0.018   3.571
  units Angstrom
}

dih_string = "1 9 10 5 150"
set optking fixed_dihedral = $dih_string

optimize('MP2/aug-cc-PVTZ')
--------------------------------------------------------------------------

    Molecular point group: c1
  Charge       = 0
  Multiplicity = 1
  Basis Set: AUG-CC-PVTZ
    Blend: AUG-CC-PVTZ
  Basis Set: (AUG-CC-PVTZ AUX)
    Blend: AUG-CC-PVTZ-JKFIT
  @DF-RHF Final Energy:  -551.28538467567728
    Total Energy =                       -551.2853846756772782
  Basis Set: (AUG-CC-PVTZ AUX)
    Blend: AUG-CC-PVTZ-RI
    Molecular point group: c1
  Basis Set: AUG-CC-PVTZ
    Blend: AUG-CC-PVTZ
  Basis Set: (AUG-CC-PVTZ AUX)
    Blend: AUG-CC-PVTZ-JKFIT
  Basis Set: (AUG-CC-PVTZ AUX)
    Blend: AUG-CC-PVTZ-JKFIT
	 Reference Energy          =    -551.2853846756772782 [Eh]
	 Singles Energy            =      -0.0000000000000001 [Eh]
	 Same-Spin Energy          =      -0.6052665472002431 [Eh]
	 Opposite-Spin Energy      =      -1.8311526158873543 [Eh]
	 Correlation Energy        =      -2.4364191630875975 [Eh]
	 Total Energy              =    -553.7218038387649131 [Eh]
	 SCS Total Energy          =    -553.6845233304754856 [Eh]
  @DF-RHF Final Energy:  -551.29150305734095
    Total Energy =                       -551.2915030573409467
  @DF-RHF Final Energy:  -551.29296218213619
    Total Energy =                       -551.2929621821361934
  @DF-RHF Final Energy:  -551.29294890609071
    Total Energy =                       -551.2929489060907144
  @DF-RHF Final Energy:  -551.29292868711877
    Total Energy =                       -551.2929286871187742
  Charge       = 0
  Multiplicity = 1
  Basis Set: AUG-CC-PVTZ
    Blend: AUG-CC-PVTZ
  Basis Set: (AUG-CC-PVTZ AUX)
    Blend: AUG-CC-PVTZ-JKFIT

    Orbital Energies (a.u.)
    -----------------------

    Doubly Occupied:

       1A    -20.602760     2A    -15.559192     3A    -11.314156
       4A    -11.270846     5A    -11.270754     6A    -11.265118
       7A    -11.253581     8A    -11.251303     9A    -11.246477
      10A    -11.244185    11A    -11.237726    12A    -11.234731
      13A    -11.234587    14A     -1.420025    15A     -1.257015
      16A     -1.175782    17A     -1.105430    18A     -1.039633
      19A     -1.029882    20A     -1.013321    21A     -0.882638
      22A     -0.873178    23A     -0.843235    24A     -0.813138
      25A     -0.750271    26A     -0.726347    27A     -0.685869
      28A     -0.662863    29A     -0.654606    30A     -0.635622
      31A     -0.613868    32A     -0.607415    33A     -0.604345
      34A     -0.592146    35A     -0.581142    36A     -0.545332
      37A     -0.534633    38A     -0.524087    39A     -0.502186
      40A     -0.495663    41A     -0.416429    42A     -0.397835
      43A     -0.357054    44A     -0.347298    45A     -0.308760

  @DF-RHF Final Energy:  -551.29293227480264

   => Energetics <=

    Nuclear Repulsion Energy =            697.8492236405523954
    One-Electron Energy =               -2132.3193869453748448
    Two-Electron Energy =                 883.1772310300199251
    DFT Exchange-Correlation Energy =       0.0000000000000000
    Empirical Dispersion Energy =           0.0000000000000000
    PCM Polarization Energy =               0.0000000000000000
    EFP Energy =                            0.0000000000000000
    Total Energy =                       -551.2929322748026379
  Basis Set: (AUG-CC-PVTZ AUX)
    Blend: AUG-CC-PVTZ-RI
    Molecular point group: c1
  Basis Set: AUG-CC-PVTZ
    Blend: AUG-CC-PVTZ
  Basis Set: (AUG-CC-PVTZ AUX)
    Blend: AUG-CC-PVTZ-JKFIT
  Basis Set: (AUG-CC-PVTZ AUX)
    Blend: AUG-CC-PVTZ-JKFIT
	 Reference Energy          =    -551.2929322748026379 [Eh]
	 Singles Energy            =      -0.0000000000000001 [Eh]
	 Same-Spin Energy          =      -0.6041824781624588 [Eh]
	 Opposite-Spin Energy      =      -1.8285676474840058 [Eh]
	 Correlation Energy        =      -2.4327501256464648 [Eh]
	 Total Energy              =    -553.7256824004491591 [Eh]

	 ================> DF-SCS-MP2 Energies <==================
	-----------------------------------------------------------
	 SCS Same-Spin Scale       =       0.3333333333333333 [-]
	 SCS Opposite-Spin Scale   =       1.2000000000000000 [-]
	 SCS Same-Spin Energy      =      -0.2013941593874863 [Eh]
	 SCS Opposite-Spin Energy  =      -2.1942811769808070 [Eh]
	 SCS Correlation Energy    =      -2.3956753363682934 [Eh]
	 SCS Total Energy          =    -553.6886076111709372 [Eh]
	-----------------------------------------------------------

  -Total Gradient:
     Atom            X                  Y                   Z
    ------   -----------------  -----------------  -----------------
       1       -0.000411066663    -0.000836088949     0.000009676396
       2       -0.000023512890    -0.000000843606     0.000025730540
       3       -0.000039009860     0.000036549944     0.000048984002
       4        0.000039801409    -0.000028403383    -0.000029845201
       5       -0.000192451947    -0.000844929560     0.000395191661
       6        0.000006334218     0.000009544121    -0.000003919870
       7        0.000037822047     0.000063844619    -0.000059608602
       8        0.000010405469    -0.000079148667     0.000026651354
       9        0.000567245366     0.000808992254     0.000196508356
      10        0.000059076110     0.000848117163    -0.000593554683
      11       -0.000015967287     0.000004881497    -0.000007120234
      12       -0.000035885736     0.000014428819     0.000026030723
      13        0.000001438182     0.000001956579    -0.000000683031
      14       -0.000009310817    -0.000001132542     0.000007665153
      15       -0.000000823396     0.000011395956    -0.000009027674
      16        0.000018175956    -0.000018128611    -0.000010146867
      17       -0.000004092456     0.000006114879    -0.000007798018
      18       -0.000008874713    -0.000009812549    -0.000006304354
      19        0.000009360569     0.000011451806     0.000004217089
      20       -0.000013972097    -0.000026330160     0.000021724388
      21       -0.000002500677     0.000031502275    -0.000011126654
      22        0.000007809188    -0.000003961876    -0.000023244474

  **** Optimization is complete! (in 6 steps) ****
    Final optimized geometry and variables:
    Molecular point group: c1

    Geometry (in Angstrom), charge = 0, multiplicity = 1:

    C           -1.267588506557     0.736454549219    -0.551969299273
    C           -0.281236455831     0.109613401223     1.532469548338
    C           -2.342210755952     1.295874055254     0.115124553760
    C           -1.354870229346     0.664751727208     2.209392355214
    C            2.188369888252    -0.509154745903    -0.019380895656
    C            0.758101124433    -1.043278990451    -1.828577523779
    C            3.222663380750    -1.101794152938    -0.725193799052
    C            1.851520337073    -1.611877569054    -2.461497829977
    C           -0.215766413599     0.135938479803     0.140903439576
    C            0.910319092910    -0.465951176815    -0.570540492788
    C           -2.389109016587     1.262217973820     1.501786520931
    N            3.076895952960    -1.651294973462    -1.933136920639
    O           -3.471358628580     1.827251276072     2.104529785438
    H           -1.232400437117     0.795794779518    -1.629412752168
    H            0.498811352374    -0.378967944556     2.096661967839
    H           -3.147383279671     1.770243633381    -0.423868391126
    H           -1.391791124821     0.624251826400     3.289271321273
    H            2.387756284687    -0.059352685815     0.941384725081
    H           -0.210043481492    -1.075837349839    -2.304616784937
    H            4.217552120079    -1.131787299627    -0.303065885794
    H            1.736538223594    -2.064216112232    -3.436728441755
    H           -3.379195623333     1.741095020384     3.058183295601

*** Psi4 exiting successfully. Buy a developer a beer!
