                               Psi4 1.1 release

  ==> Input File <==

--------------------------------------------------------------------------

molecule phepyr {
  symmetry C1
  0 1
  C      1.885   -1.036   -0.112
  C      0.807   -0.463   0.561
  C      2.921   -1.631   0.608
  C      0.764   -0.484   1.955
  C      2.878   -1.652   2.002
  C      1.400   0.044   4.827
  C      2.066   -2.267   4.812
  C      1.370   -0.029   6.210
  C      2.007   -2.237   6.196
  C      1.800   -1.079   2.676
  C      1.755   -1.100   4.122
  N      1.666   -1.144   6.915
  H      1.917   -1.021   -1.198
  H      -0.001   -0.002   0.000
  H      3.760   -2.079   0.084
  H      -0.084   -0.033   2.466
  H      3.693   -2.120   2.550
  H      1.149   0.973   4.323
  H      2.348   -3.179   4.296
  H      1.098   0.836   6.806
  H      2.241   -3.120   6.781
  units Angstrom
}

dih_string = "4 10 11 6 315"
set optking fixed_dihedral = $dih_string

optimize('MP2/aug-cc-PVTZ')
--------------------------------------------------------------------------

    Molecular point group: c1
  Charge       = 0
  Multiplicity = 1
  Basis Set: AUG-CC-PVTZ
    Blend: AUG-CC-PVTZ
  Basis Set: (AUG-CC-PVTZ AUX)
    Blend: AUG-CC-PVTZ-JKFIT
  @DF-RHF Final Energy:  -476.39716110692427
    Total Energy =                       -476.3971611069242726
  Basis Set: (AUG-CC-PVTZ AUX)
    Blend: AUG-CC-PVTZ-RI
    Molecular point group: c1
  Basis Set: AUG-CC-PVTZ
    Blend: AUG-CC-PVTZ
  Basis Set: (AUG-CC-PVTZ AUX)
    Blend: AUG-CC-PVTZ-JKFIT
  Basis Set: (AUG-CC-PVTZ AUX)
    Blend: AUG-CC-PVTZ-JKFIT
	 Reference Energy          =    -476.3971611069242726 [Eh]
	 Singles Energy            =      -0.0000000000000000 [Eh]
	 Same-Spin Energy          =      -0.5349279513438445 [Eh]
	 Opposite-Spin Energy      =      -1.6428930441524165 [Eh]
	 Correlation Energy        =      -2.1778209954962611 [Eh]
	 Total Energy              =    -478.5749821024205062 [Eh]
	 SCS Total Energy          =    -478.5469420770218107 [Eh]
  @DF-RHF Final Energy:  -476.40191096181491
    Total Energy =                       -476.4019109618149059
  @DF-RHF Final Energy:  -476.40231166128086
    Total Energy =                       -476.4023116612809190
  @DF-RHF Final Energy:  -476.40227867398619
    Total Energy =                       -476.4022786739861886
  Charge       = 0
  Multiplicity = 1
  Basis Set: AUG-CC-PVTZ
    Blend: AUG-CC-PVTZ
  Basis Set: (AUG-CC-PVTZ AUX)
    Blend: AUG-CC-PVTZ-JKFIT

    Orbital Energies (a.u.)
    -----------------------

    Doubly Occupied:

       1A    -15.562180     2A    -11.272443     3A    -11.272422
       4A    -11.264972     5A    -11.252722     6A    -11.244279
       7A    -11.244177     8A    -11.243308     9A    -11.242762
      10A    -11.241893    11A    -11.237231    12A    -11.237186
      13A     -1.259164    14A     -1.175715    15A     -1.108284
      16A     -1.036750    17A     -1.026430    18A     -1.018916
      19A     -0.881261    20A     -0.866466    21A     -0.831868
      22A     -0.808677    23A     -0.733893    24A     -0.686413
      25A     -0.672940    26A     -0.659997    27A     -0.633055
      28A     -0.630574    29A     -0.602212    30A     -0.594114
      31A     -0.583314    32A     -0.545978    33A     -0.525826
      34A     -0.512804    35A     -0.510631    36A     -0.498977
      37A     -0.418167    38A     -0.400278    39A     -0.349483
      40A     -0.348087    41A     -0.327487

  @DF-RHF Final Energy:  -476.40226299766647

   => Energetics <=

    Nuclear Repulsion Energy =            606.3140241683064460
    One-Electron Energy =               -1846.3059029353005371
    Two-Electron Energy =                 763.5896157693274517
    DFT Exchange-Correlation Energy =       0.0000000000000000
    Empirical Dispersion Energy =           0.0000000000000000
    PCM Polarization Energy =               0.0000000000000000
    EFP Energy =                            0.0000000000000000
    Total Energy =                       -476.4022629976665257
  Basis Set: (AUG-CC-PVTZ AUX)
    Blend: AUG-CC-PVTZ-RI
    Molecular point group: c1
  Basis Set: AUG-CC-PVTZ
    Blend: AUG-CC-PVTZ
  Basis Set: (AUG-CC-PVTZ AUX)
    Blend: AUG-CC-PVTZ-JKFIT
  Basis Set: (AUG-CC-PVTZ AUX)
    Blend: AUG-CC-PVTZ-JKFIT
	 Reference Energy          =    -476.4022629976664689 [Eh]
	 Singles Energy            =      -0.0000000000000003 [Eh]
	 Same-Spin Energy          =      -0.5341719978502681 [Eh]
	 Opposite-Spin Energy      =      -1.6408089744973724 [Eh]
	 Correlation Energy        =      -2.1749809723476408 [Eh]
	 Total Energy              =    -478.5772439700141376 [Eh]

	 ================> DF-SCS-MP2 Energies <==================
	-----------------------------------------------------------
	 SCS Same-Spin Scale       =       0.3333333333333333 [-]
	 SCS Opposite-Spin Scale   =       1.2000000000000000 [-]
	 SCS Same-Spin Energy      =      -0.1780573326167560 [Eh]
	 SCS Opposite-Spin Energy  =      -1.9689707693968468 [Eh]
	 SCS Correlation Energy    =      -2.1470281020136031 [Eh]
	 SCS Total Energy          =    -478.5492910996800902 [Eh]
	-----------------------------------------------------------

  -Total Gradient:
     Atom            X                  Y                   Z
    ------   -----------------  -----------------  -----------------
       1       -0.000014551901    -0.000002269095    -0.000008950131
       2        0.000020012176    -0.000015647157    -0.000025898367
       3        0.000001071683     0.000030052850    -0.000006533712
       4       -0.000732860429    -0.001323939627    -0.000030037865
       5        0.000036952272    -0.000004801951     0.000008292882
       6        0.001514897192     0.000413686486     0.000051593385
       7       -0.000050508078    -0.000027651562     0.000008063143
       8       -0.000101513928    -0.000135262293     0.000083047568
       9        0.000105481648     0.000110912379     0.000060201644
      10        0.001782752125     0.002141839467     0.000127892185
      11       -0.002523481070    -0.001241694897    -0.000151714639
      12        0.000001538705     0.000025777234    -0.000041744534
      13       -0.000001674846     0.000003208606    -0.000013541904
      14       -0.000013142351     0.000018170219    -0.000005118608
      15        0.000006722387    -0.000028555847    -0.000001593512
      16       -0.000001315701     0.000021520787     0.000014493780
      17        0.000001698788     0.000004715406     0.000004893858
      18       -0.000015213577     0.000014044334    -0.000034537204
      19       -0.000009975933    -0.000010993614    -0.000032091431
      20        0.000034178517     0.000002675741    -0.000000733949
      21       -0.000041067669     0.000004212542    -0.000005982604

  **** Optimization is complete! (in 5 steps) ****
    Final optimized geometry and variables:
    Molecular point group: c1

    Geometry (in Angstrom), charge = 0, multiplicity = 1:

    C            0.112911439211     0.050607899044    -3.545465160331
    C           -0.953258628331     0.636643992592    -2.876151850681
    C            1.133128227404    -0.553395591853    -2.822535861701
    C           -0.997104812557     0.620458510254    -1.490251568832
    C            1.087477564422    -0.570209313723    -1.436711400755
    C           -0.390637147181     1.113779108135     1.443910317188
    C            0.296928000996    -1.156000245008     1.423019791322
    C           -0.416270980759     1.042022645947     2.827719137738
    C            0.244472810837    -1.132914340579     2.807730656140
    C            0.025204603751     0.021952491173    -0.755315106566
    C           -0.031987508022    -0.009933079495     0.705956824345
    N           -0.105940901833    -0.057941448499     3.517610957893
    H            0.147755465908     0.063102929071    -4.623971426145
    H           -1.753925202669     1.097974583209    -3.433727408979
    H            1.966221207917    -1.006206539151    -3.338015190247
    H           -1.837000621864     1.057160461642    -0.970288119058
    H            1.890133238086    -1.023991491831    -0.874459457211
    H           -0.631689649923     2.040332865638     0.944684338503
    H            0.570826681990    -2.063531145713     0.906231153974
    H           -0.689537177807     1.910409135602     3.410866635312
    H            0.489162523645    -2.020466017708     3.374471649928

*** Psi4 exiting successfully. Buy a developer a beer!
