                               Psi4 1.1 release

  ==> Input File <==

--------------------------------------------------------------------------

memory 5 Gb

molecule phepyrOH_cation {
  symmetry C1
  1 1
  C      1.885   -1.036   -0.112
  C      2.878   -1.652   2.002
  C      0.807   -0.463   0.561
  C      1.800   -1.079   2.676
  C      4.906   -3.081   0.583
  C      4.251   -1.942   -1.436
  C      5.971   -3.637   -0.112
  C      5.333   -2.526   -2.080
  C      2.921   -1.631   0.608
  C      4.040   -2.225   -0.090
  C      0.764   -0.484   1.955
  N      6.152   -3.347   -1.407
  O      -0.288   0.076   2.612
  H      1.904   -1.012   -1.199
  H      3.678   -2.112   2.578
  H      0.003   -0.001   -0.006
  H      1.772   -1.098   3.762
  H      4.765   -3.320   1.633
  H      3.592   -1.278   -1.986
  H      6.692   -4.311   0.329
  H      5.574   -2.364   -3.121
  H      6.941   -3.765   -1.899
  H      -0.175   -0.018   3.571
  units Angstrom
}

dih_string = "1 9 10 5 195"
set optking fixed_dihedral = $dih_string

optimize('MP2/aug-cc-PVTZ')
--------------------------------------------------------------------------

    Molecular point group: c1
  Charge       = 1
  Multiplicity = 1
  Basis Set: AUG-CC-PVTZ
    Blend: AUG-CC-PVTZ
  Basis Set: (AUG-CC-PVTZ AUX)
    Blend: AUG-CC-PVTZ-JKFIT
  @DF-RHF Final Energy:  -551.67356876239069
    Total Energy =                       -551.6735687623906870
  Basis Set: (AUG-CC-PVTZ AUX)
    Blend: AUG-CC-PVTZ-RI
    Molecular point group: c1
  Basis Set: AUG-CC-PVTZ
    Blend: AUG-CC-PVTZ
  Basis Set: (AUG-CC-PVTZ AUX)
    Blend: AUG-CC-PVTZ-JKFIT
  Basis Set: (AUG-CC-PVTZ AUX)
    Blend: AUG-CC-PVTZ-JKFIT
	 Reference Energy          =    -551.6735687623906870 [Eh]
	 Singles Energy            =      -0.0000000000000001 [Eh]
	 Same-Spin Energy          =      -0.5969486552419584 [Eh]
	 Opposite-Spin Energy      =      -1.8265190454094771 [Eh]
	 Correlation Energy        =      -2.4234677006514356 [Eh]
	 Total Energy              =    -554.0970364630421727 [Eh]
	 SCS Total Energy          =    -554.0643745019626749 [Eh]
  @DF-RHF Final Energy:  -551.68037202492599
    Total Energy =                       -551.6803720249259868
  @DF-RHF Final Energy:  -551.68258810236625
    Total Energy =                       -551.6825881023662532
  @DF-RHF Final Energy:  -551.68263269413274
    Total Energy =                       -551.6826326941327352
  @DF-RHF Final Energy:  -551.68264333337459
    Total Energy =                       -551.6826433333745854
  Charge       = 1
  Multiplicity = 1
  Basis Set: AUG-CC-PVTZ
    Blend: AUG-CC-PVTZ
  Basis Set: (AUG-CC-PVTZ AUX)
    Blend: AUG-CC-PVTZ-JKFIT

    Orbital Energies (a.u.)
    -----------------------

    Doubly Occupied:

       1A    -20.712182     2A    -15.823336     3A    -11.476553
       4A    -11.476441     5A    -11.449766     6A    -11.439123
       7A    -11.406855     8A    -11.406501     9A    -11.382698
      10A    -11.378869    11A    -11.374138    12A    -11.357137
      13A    -11.350345    14A     -1.535592    15A     -1.503298
      16A     -1.317928    17A     -1.267041    18A     -1.234742
      19A     -1.158732    20A     -1.157928    21A     -1.060255
      22A     -1.057862    23A     -0.981027    24A     -0.960211
      25A     -0.955661    26A     -0.875473    27A     -0.861740
      28A     -0.855166    29A     -0.820217    30A     -0.798747
      31A     -0.781002    32A     -0.769692    33A     -0.760418
      34A     -0.733749    35A     -0.722040    36A     -0.715606
      37A     -0.701994    38A     -0.687043    39A     -0.664859
      40A     -0.643873    41A     -0.619933    42A     -0.568620
      43A     -0.537307    44A     -0.476057    45A     -0.436772

  @DF-RHF Final Energy:  -551.68264477540538

   => Energetics <=

    Nuclear Repulsion Energy =            713.3232996435489213
    One-Electron Energy =               -2149.5028384444972289
    Two-Electron Energy =                 884.4968940255428151
    DFT Exchange-Correlation Energy =       0.0000000000000000
    Empirical Dispersion Energy =           0.0000000000000000
    PCM Polarization Energy =               0.0000000000000000
    EFP Energy =                            0.0000000000000000
    Total Energy =                       -551.6826447754053788
  Basis Set: (AUG-CC-PVTZ AUX)
    Blend: AUG-CC-PVTZ-RI
    Molecular point group: c1
  Basis Set: AUG-CC-PVTZ
    Blend: AUG-CC-PVTZ
  Basis Set: (AUG-CC-PVTZ AUX)
    Blend: AUG-CC-PVTZ-JKFIT
  Basis Set: (AUG-CC-PVTZ AUX)
    Blend: AUG-CC-PVTZ-JKFIT
	 Reference Energy          =    -551.6826447754053788 [Eh]
	 Singles Energy            =      -0.0000000000000001 [Eh]
	 Same-Spin Energy          =      -0.5956562115108989 [Eh]
	 Opposite-Spin Energy      =      -1.8237041607041145 [Eh]
	 Correlation Energy        =      -2.4193603722150132 [Eh]
	 Total Energy              =    -554.1020051476203889 [Eh]

	 ================> DF-SCS-MP2 Energies <==================
	-----------------------------------------------------------
	 SCS Same-Spin Scale       =       0.3333333333333333 [-]
	 SCS Opposite-Spin Scale   =       1.2000000000000000 [-]
	 SCS Same-Spin Energy      =      -0.1985520705036329 [Eh]
	 SCS Opposite-Spin Energy  =      -2.1884449928449374 [Eh]
	 SCS Correlation Energy    =      -2.3869970633485704 [Eh]
	 SCS Total Energy          =    -554.0696418387539097 [Eh]
	-----------------------------------------------------------

  -Total Gradient:
     Atom            X                  Y                   Z
    ------   -----------------  -----------------  -----------------
       1        0.000556073224     0.000905467267     0.000053468798
       2       -0.000000824061     0.000005949197     0.000004472695
       3       -0.000022945291    -0.000015043387     0.000014435535
       4        0.000029754840    -0.000008811626    -0.000013154657
       5        0.000593932813     0.000794178385     0.000249111167
       6        0.000008058280    -0.000006135167     0.000018862405
       7       -0.000002791165     0.000006816194     0.000021234538
       8       -0.000019771457     0.000007439916    -0.000005525347
       9       -0.000441657468    -0.000965715086     0.000054813598
      10       -0.000673706020    -0.000745320384    -0.000370772459
      11       -0.000026562989     0.000021058472    -0.000007107777
      12        0.000003392116    -0.000000775601     0.000000340986
      13        0.000018031137    -0.000010280975     0.000001185527
      14       -0.000011220728     0.000002685256    -0.000013977222
      15       -0.000003116802     0.000008669838     0.000010637570
      16        0.000012820211     0.000000003048    -0.000010803941
      17       -0.000004290598    -0.000004037467    -0.000001987624
      18        0.000004992808    -0.000005360894    -0.000000974774
      19       -0.000009181138     0.000006754103    -0.000009496902
      20       -0.000001882611     0.000002050017     0.000002790649
      21       -0.000004626517     0.000000592906     0.000003184524
      22       -0.000002005853    -0.000001025705    -0.000000040138
      23       -0.000002472743     0.000000841707    -0.000000697145

  **** Optimization is complete! (in 6 steps) ****
    Final optimized geometry and variables:
    Molecular point group: c1

    Geometry (in Angstrom), charge = 1, multiplicity = 1:

    C           -1.301473231458     0.714145309121    -0.546251640252
    C           -0.298835660345     0.110798409942     1.550703227857
    C           -2.363196299540     1.283387435336     0.119553299932
    C           -1.354400446781     0.689066895006     2.223888378606
    C            1.769395895086    -1.349389606981     0.083010913529
    C            1.126134322730    -0.195888774786    -1.900723854548
    C            2.829833548252    -1.891632401324    -0.595437619923
    C            2.194974365705    -0.754199986380    -2.552550999761
    C           -0.247820084940     0.109865713761     0.152418701111
    C            0.869872439260    -0.477417877808    -0.549759620926
    C           -2.397893270799     1.277073054294     1.512438055555
    N            3.017154871810    -1.584374503715    -1.889729824015
    O           -3.459863918938     1.854037309596     2.095096100114
    H           -1.322662312844     0.712405898583    -1.624425669765
    H            0.505854872046    -0.307583334163     2.134143083624
    H           -3.182033153019     1.733784993567    -0.418928747973
    H           -1.367406238093     0.691558375392     3.304125439903
    H            1.635791145592    -1.637970366311     1.111484783962
    H            0.504249658551     0.485443725410    -2.455523404865
    H            3.536365352653    -2.570611330194    -0.147831555887
    H            2.428135871527    -0.558586985372    -3.585959554660
    H            3.802755080317    -1.990398857473    -2.380585909785
    H           -3.393990025301     1.796083814102     3.055069785700

*** Psi4 exiting successfully. Buy a developer a beer!
