                               Psi4 1.1 release

  ==> Input File <==

--------------------------------------------------------------------------

molecule phepyr {
  symmetry C1
  0 1
  C      1.885   -1.036   -0.112
  C      0.807   -0.463   0.561
  C      2.921   -1.631   0.608
  C      0.764   -0.484   1.955
  C      2.878   -1.652   2.002
  C      0.532   -1.134   4.782
  C      2.935   -1.090   4.857
  C      0.543   -1.155   6.167
  C      2.839   -1.113   6.239
  C      1.800   -1.079   2.676
  C      1.755   -1.100   4.122
  N      1.669   -1.146   6.915
  H      1.917   -1.021   -1.198
  H      -0.001   -0.002   0.000
  H      3.760   -2.079   0.084
  H      -0.084   -0.033   2.466
  H      3.693   -2.120   2.550
  H      -0.410   -1.145   4.243
  H      3.908   -1.063   4.376
  H      -0.385   -1.184   6.730
  H      3.730   -1.104   6.857
  units Angstrom
}

dih_string = "4 10 11 6 30"
set optking fixed_dihedral = $dih_string

optimize('MP2/aug-cc-PVTZ')
--------------------------------------------------------------------------

    Molecular point group: c1
  Charge       = 0
  Multiplicity = 1
  Basis Set: AUG-CC-PVTZ
    Blend: AUG-CC-PVTZ
  Basis Set: (AUG-CC-PVTZ AUX)
    Blend: AUG-CC-PVTZ-JKFIT
  @DF-RHF Final Energy:  -476.39554415469570
    Total Energy =                       -476.3955441546956990
  Basis Set: (AUG-CC-PVTZ AUX)
    Blend: AUG-CC-PVTZ-RI
    Molecular point group: c1
  Basis Set: AUG-CC-PVTZ
    Blend: AUG-CC-PVTZ
  Basis Set: (AUG-CC-PVTZ AUX)
    Blend: AUG-CC-PVTZ-JKFIT
  Basis Set: (AUG-CC-PVTZ AUX)
    Blend: AUG-CC-PVTZ-JKFIT
	 Reference Energy          =    -476.3955441546956990 [Eh]
	 Singles Energy            =      -0.0000000000000002 [Eh]
	 Same-Spin Energy          =      -0.5353952534677939 [Eh]
	 Opposite-Spin Energy      =      -1.6436103169173732 [Eh]
	 Correlation Energy        =      -2.1790055703851676 [Eh]
	 Total Energy              =    -478.5745497250808853 [Eh]
	 SCS Total Energy          =    -478.5463416194858155 [Eh]
  @DF-RHF Final Energy:  -476.40093122144737
    Total Energy =                       -476.4009312214473084
  @DF-RHF Final Energy:  -476.40173277991579
    Total Energy =                       -476.4017327799157329
  @DF-RHF Final Energy:  -476.40172575294298
    Total Energy =                       -476.4017257529429799
  Charge       = 0
  Multiplicity = 1
  Basis Set: AUG-CC-PVTZ
    Blend: AUG-CC-PVTZ
  Basis Set: (AUG-CC-PVTZ AUX)
    Blend: AUG-CC-PVTZ-JKFIT

    Orbital Energies (a.u.)
    -----------------------

    Doubly Occupied:

       1A    -15.561771     2A    -11.272212     3A    -11.272189
       4A    -11.266172     5A    -11.253837     6A    -11.244842
       7A    -11.244772     8A    -11.244001     9A    -11.243139
      10A    -11.242470    11A    -11.237087    12A    -11.237053
      13A     -1.258965    14A     -1.176107    15A     -1.108481
      16A     -1.037532    17A     -1.026288    18A     -1.019259
      19A     -0.882184    20A     -0.868611    21A     -0.829313
      22A     -0.809530    23A     -0.735643    24A     -0.685730
      25A     -0.673843    26A     -0.662832    27A     -0.631913
      28A     -0.626698    29A     -0.604867    30A     -0.591689
      31A     -0.583867    32A     -0.548391    33A     -0.526801
      34A     -0.514482    35A     -0.511813    36A     -0.496406
      37A     -0.418362    38A     -0.406424    39A     -0.350134
      40A     -0.347831    41A     -0.323294

  @DF-RHF Final Energy:  -476.40169863753499

   => Energetics <=

    Nuclear Repulsion Energy =            606.2843144722369289
    One-Electron Energy =               -1846.2183618170845421
    Two-Electron Energy =                 763.5323487073126216
    DFT Exchange-Correlation Energy =       0.0000000000000000
    Empirical Dispersion Energy =           0.0000000000000000
    PCM Polarization Energy =               0.0000000000000000
    EFP Energy =                            0.0000000000000000
    Total Energy =                       -476.4016986375349916
  Basis Set: (AUG-CC-PVTZ AUX)
    Blend: AUG-CC-PVTZ-RI
    Molecular point group: c1
  Basis Set: AUG-CC-PVTZ
    Blend: AUG-CC-PVTZ
  Basis Set: (AUG-CC-PVTZ AUX)
    Blend: AUG-CC-PVTZ-JKFIT
  Basis Set: (AUG-CC-PVTZ AUX)
    Blend: AUG-CC-PVTZ-JKFIT
	 Reference Energy          =    -476.4016986375349916 [Eh]
	 Singles Energy            =      -0.0000000000000003 [Eh]
	 Same-Spin Energy          =      -0.5344104247032014 [Eh]
	 Opposite-Spin Energy      =      -1.6412514085089067 [Eh]
	 Correlation Energy        =      -2.1756618332121085 [Eh]
	 Total Energy              =    -478.5773604707471236 [Eh]

	 ================> DF-SCS-MP2 Energies <==================
	-----------------------------------------------------------
	 SCS Same-Spin Scale       =       0.3333333333333333 [-]
	 SCS Opposite-Spin Scale   =       1.2000000000000000 [-]
	 SCS Same-Spin Energy      =      -0.1781368082344005 [Eh]
	 SCS Opposite-Spin Energy  =      -1.9695016902106879 [Eh]
	 SCS Correlation Energy    =      -2.1476384984450889 [Eh]
	 SCS Total Energy          =    -478.5493371359800676 [Eh]
	-----------------------------------------------------------

  -Total Gradient:
     Atom            X                  Y                   Z
    ------   -----------------  -----------------  -----------------
       1       -0.000001450988    -0.000017745069    -0.000017373449
       2        0.000026012109     0.000033117802    -0.000023395383
       3       -0.000014316157     0.000003714677    -0.000039686968
       4       -0.000562178816    -0.000979697838     0.000013683671
       5       -0.000020299913    -0.000033117867     0.000071358850
       6       -0.000030865616     0.001074701656    -0.000025938572
       7       -0.000000829802     0.000093167909    -0.000060928013
       8        0.000029049520     0.000222939094     0.000046210357
       9       -0.000034409959    -0.000281953287     0.000052475085
      10        0.000822779686     0.002060153660     0.000099130426
      11       -0.000223640047    -0.002210827592    -0.000075143865
      12        0.000009476814     0.000026207176     0.000031951416
      13        0.000001034291    -0.000002859553    -0.000016486236
      14       -0.000026702156    -0.000005198802    -0.000000695145
      15        0.000027663498     0.000003844779     0.000001260010
      16       -0.000011284426     0.000007123746    -0.000009159486
      17        0.000014140388    -0.000003136267    -0.000006646799
      18       -0.000015324749    -0.000019318032    -0.000014456067
      19        0.000015532630     0.000015385314    -0.000014599747
      20        0.000014082324    -0.000072190170    -0.000004556303
      21       -0.000018468620     0.000085688663    -0.000007003789

  **** Optimization is complete! (in 5 steps) ****
    Final optimized geometry and variables:
    Molecular point group: c1

    Geometry (in Angstrom), charge = 0, multiplicity = 1:

    C            0.108724183603     0.057775839664    -3.551966155427
    C           -0.955528496524     0.639039995207    -2.875831510129
    C            1.130818852910    -0.546825858502    -2.832706475966
    C           -0.995528667500     0.616958010010    -1.490264878378
    C            1.088475702866    -0.568074364914    -1.447203778034
    C           -1.227258207721    -0.056431684718     1.400038946527
    C            1.138798812460     0.007929956118     1.477121999042
    C           -1.222952393321    -0.074992723916     2.785474133404
    C            1.045839286389    -0.015675489852     2.859342489338
    C            0.027597436896     0.017218268898    -0.755729480624
    C           -0.020596326693    -0.017609861169     0.706446714819
    N           -0.111113837895    -0.056222685540     3.524182348019
    H            0.140582342252     0.074633354218    -4.630543676716
    H           -1.750713561985     1.116759268352    -3.427325068405
    H            1.955899155456    -1.010876666878    -3.350952514637
    H           -1.811919002805     1.097398289839    -0.972467964960
    H            1.871100808654    -1.068475847966    -0.897056291055
    H           -2.165756551916    -0.101952256093     0.868999653398
    H            2.109036470066     0.072116408892     1.008650663158
    H           -2.156978564084    -0.114077218362     3.328545349984
    H            1.942951856574     0.009433497210     3.462172787082

*** Psi4 exiting successfully. Buy a developer a beer!
