                               Psi4 1.1 release

  ==> Input File <==

--------------------------------------------------------------------------

molecule phepyr {
  symmetry C1
  0 1
  C      1.885   -1.036   -0.112
  C      0.807   -0.463   0.561
  C      2.921   -1.631   0.608
  C      0.764   -0.484   1.955
  C      2.878   -1.652   2.002
  C      2.600   -1.945   4.834
  C      0.868   -0.276   4.805
  C      2.519   -1.927   6.217
  C      0.864   -0.333   6.189
  C      1.800   -1.079   2.676
  C      1.755   -1.100   4.122
  N      1.670   -1.141   6.915
  H      1.917   -1.021   -1.198
  H      -0.001   -0.002   0.000
  H      3.760   -2.079   0.084
  H      -0.084   -0.033   2.466
  H      3.693   -2.120   2.550
  H      3.306   -2.602   4.336
  H      0.193   0.395   4.283
  H      3.157   -2.566   6.818
  H      0.191   0.289   6.769
  units Angstrom
}

dih_string = "4 10 11 6 165"
set optking fixed_dihedral = $dih_string

optimize('MP2/aug-cc-PVTZ')
--------------------------------------------------------------------------

    Molecular point group: c1
  Charge       = 0
  Multiplicity = 1
  Basis Set: AUG-CC-PVTZ
    Blend: AUG-CC-PVTZ
  Basis Set: (AUG-CC-PVTZ AUX)
    Blend: AUG-CC-PVTZ-JKFIT
  @DF-RHF Final Energy:  -476.39158454084793
    Total Energy =                       -476.3915845408479299
  Basis Set: (AUG-CC-PVTZ AUX)
    Blend: AUG-CC-PVTZ-RI
    Molecular point group: c1
  Basis Set: AUG-CC-PVTZ
    Blend: AUG-CC-PVTZ
  Basis Set: (AUG-CC-PVTZ AUX)
    Blend: AUG-CC-PVTZ-JKFIT
  Basis Set: (AUG-CC-PVTZ AUX)
    Blend: AUG-CC-PVTZ-JKFIT
	 Reference Energy          =    -476.3915845408479299 [Eh]
	 Singles Energy            =      -0.0000000000000001 [Eh]
	 Same-Spin Energy          =      -0.5358406841020498 [Eh]
	 Opposite-Spin Energy      =      -1.6446939855894720 [Eh]
	 Correlation Energy        =      -2.1805346696915215 [Eh]
	 Total Energy              =    -478.5721192105394266 [Eh]
	 SCS Total Energy          =    -478.5438308849226701 [Eh]
  @DF-RHF Final Energy:  -476.39820341287196
    Total Energy =                       -476.3982034128719079
  @DF-RHF Final Energy:  -476.39979202757144
    Total Energy =                       -476.3997920275714932
  @DF-RHF Final Energy:  -476.39984134391125
    Total Energy =                       -476.3998413439112483
  @DF-RHF Final Energy:  -476.39985224903717
    Total Energy =                       -476.3998522490371670
  @DF-RHF Final Energy:  -476.39985118503643
    Total Energy =                       -476.3998511850364821
  @DF-RHF Final Energy:  -476.39984971970739
    Total Energy =                       -476.3998497197073902
  @DF-RHF Final Energy:  -476.39985285055974
    Total Energy =                       -476.3998528505596823
  Charge       = 0
  Multiplicity = 1
  Basis Set: AUG-CC-PVTZ
    Blend: AUG-CC-PVTZ
  Basis Set: (AUG-CC-PVTZ AUX)
    Blend: AUG-CC-PVTZ-JKFIT

    Orbital Energies (a.u.)
    -----------------------

    Doubly Occupied:

       1A    -15.561434     2A    -11.271934     3A    -11.271918
       4A    -11.268093     5A    -11.255524     6A    -11.245335
       7A    -11.245288     8A    -11.244562     9A    -11.243320
      10A    -11.242786    11A    -11.237066    12A    -11.237014
      13A     -1.259000    14A     -1.176259    15A     -1.108541
      16A     -1.038179    17A     -1.026159    18A     -1.019843
      19A     -0.883139    20A     -0.870091    21A     -0.827146
      22A     -0.810738    23A     -0.737682    24A     -0.685703
      25A     -0.674507    26A     -0.665340    27A     -0.630609
      28A     -0.623245    29A     -0.607772    30A     -0.588225
      31A     -0.584521    32A     -0.551683    33A     -0.528388
      34A     -0.515883    35A     -0.512772    36A     -0.493309
      37A     -0.418572    38A     -0.411228    39A     -0.352124
      40A     -0.346125    41A     -0.320313

  @DF-RHF Final Energy:  -476.39985145190315

   => Energetics <=

    Nuclear Repulsion Energy =            605.9551423141665509
    One-Electron Energy =               -1845.5272506942710606
    Two-Electron Energy =                 763.1722569282013637
    DFT Exchange-Correlation Energy =       0.0000000000000000
    Empirical Dispersion Energy =           0.0000000000000000
    PCM Polarization Energy =               0.0000000000000000
    EFP Energy =                            0.0000000000000000
    Total Energy =                       -476.3998514519031460
  Basis Set: (AUG-CC-PVTZ AUX)
    Blend: AUG-CC-PVTZ-RI
    Molecular point group: c1
  Basis Set: AUG-CC-PVTZ
    Blend: AUG-CC-PVTZ
  Basis Set: (AUG-CC-PVTZ AUX)
    Blend: AUG-CC-PVTZ-JKFIT
  Basis Set: (AUG-CC-PVTZ AUX)
    Blend: AUG-CC-PVTZ-JKFIT
	 Reference Energy          =    -476.3998514519031460 [Eh]
	 Singles Energy            =      -0.0000000000000005 [Eh]
	 Same-Spin Energy          =      -0.5345362775618434 [Eh]
	 Opposite-Spin Energy      =      -1.6417549788667312 [Eh]
	 Correlation Energy        =      -2.1762912564285748 [Eh]
	 Total Energy              =    -478.5761427083317017 [Eh]

	 ================> DF-SCS-MP2 Energies <==================
	-----------------------------------------------------------
	 SCS Same-Spin Scale       =       0.3333333333333333 [-]
	 SCS Opposite-Spin Scale   =       1.2000000000000000 [-]
	 SCS Same-Spin Energy      =      -0.1781787591872811 [Eh]
	 SCS Opposite-Spin Energy  =      -1.9701059746400773 [Eh]
	 SCS Correlation Energy    =      -2.1482847338273587 [Eh]
	 SCS Total Energy          =    -478.5481361857305274 [Eh]
	-----------------------------------------------------------

  -Total Gradient:
     Atom            X                  Y                   Z
    ------   -----------------  -----------------  -----------------
       1       -0.000007964405    -0.000014115932     0.000016508584
       2        0.000009895525     0.000010319309    -0.000001057837
       3        0.000012626686     0.000032749575    -0.000003253197
       4        0.001195714465     0.002206986986     0.000046599306
       5        0.000028961213     0.000002692306    -0.000020058230
       6        0.001746523456     0.001756573939     0.000104669507
       7        0.000064703650     0.000091186845     0.000003567126
       8       -0.000007616842     0.000004432572    -0.000007337860
       9       -0.000112402747    -0.000125043149    -0.000001787105
      10       -0.000977727623    -0.002454467466    -0.000052505932
      11       -0.001987495002    -0.001571439355    -0.000101937692
      12        0.000028417769     0.000028665512    -0.000004433693
      13       -0.000000642424    -0.000000466198     0.000006212743
      14        0.000003738215    -0.000004204150     0.000000917444
      15       -0.000009966766    -0.000000823834     0.000001169209
      16        0.000018494414     0.000001762315     0.000013542130
      17       -0.000020589824     0.000013107581    -0.000000439471
      18       -0.000025594544     0.000003779885     0.000007864162
      19       -0.000003484603    -0.000022709146    -0.000009257250
      20        0.000019655628     0.000020011375     0.000002032660
      21        0.000024753767     0.000021001027    -0.000001014620

  **** Optimization is complete! (in 9 steps) ****
    Final optimized geometry and variables:
    Molecular point group: c1

    Geometry (in Angstrom), charge = 0, multiplicity = 1:

    C            0.125330233834     0.077598679980    -3.561145018331
    C           -0.962573889406     0.616213821419    -2.888448301566
    C            1.155923033598    -0.502124204960    -2.834606545005
    C           -1.020023338865     0.569668310211    -1.504507129989
    C            1.095265562278    -0.546443151172    -1.450669318238
    C            0.778861357375    -0.872387305910     1.462371041300
    C           -0.883353031660     0.806558573127     1.430256413465
    C            0.719331858212    -0.837422194291     2.845873333300
    C           -0.876502668994     0.772162649542     2.815106019906
    C            0.003386196585    -0.018632222701    -0.759162389106
    C           -0.043989321742    -0.038881341481     0.707218163576
    N           -0.092426524845    -0.032839584593     3.535221485861
    H            0.171135072862     0.112525654711    -4.638750734304
    H           -1.771978481989     1.067123495741    -3.441830762041
    H            2.013873153133    -0.912056168963    -3.345083418305
    H           -1.887474080152     0.970963410276    -1.004795647620
    H            1.921831015022    -0.974211119854    -0.905921805240
    H            1.448412634185    -1.572195737200     0.988232441806
    H           -1.529038574419     1.510900599102     0.930623476814
    H            1.354203201720    -1.490115117154     3.428931801377
    H           -1.528089615324     1.430061796844     3.373306106825

*** Psi4 exiting successfully. Buy a developer a beer!
