                               Psi4 1.1 release

  ==> Input File <==

--------------------------------------------------------------------------

memory 1000 mb

molecule butane {
  symmetry C1
  0 1
  H      1.604   0.760   -8.260
  H      1.745   2.388   -8.880
  H      2.043   1.024   -9.930
  C      2.142   1.395   -8.932
  H      4.169   2.051   -9.210
  H      3.731   1.788   -7.539
  C      3.631   1.416   -8.537
  H      3.665   -0.647   -7.940
  H      4.104   -0.384   -9.610
  C      4.203   -0.012   -8.612
  H      6.029   1.022   -8.153
  H      6.264   -0.511   -8.957
  H      5.817   -0.470   -7.269
  C      5.691   0.009   -8.218
  units Angstrom
}

dih_string = "7 10 14 13 110"
set optking fixed_dihedral = $dih_string

optimize('MP2/aug-cc-pvtz')
--------------------------------------------------------------------------

    Molecular point group: c1
  Charge       = 0
  Multiplicity = 1
  Basis Set: AUG-CC-PVTZ
    Blend: AUG-CC-PVTZ
  Basis Set: (AUG-CC-PVTZ AUX)
    Blend: AUG-CC-PVTZ-JKFIT
  @DF-RHF Final Energy:  -157.34758290893507
    Total Energy =                       -157.3475829089350668
  Basis Set: (AUG-CC-PVTZ AUX)
    Blend: AUG-CC-PVTZ-RI
    Molecular point group: c1
  Basis Set: AUG-CC-PVTZ
    Blend: AUG-CC-PVTZ
  Basis Set: (AUG-CC-PVTZ AUX)
    Blend: AUG-CC-PVTZ-JKFIT
  Basis Set: (AUG-CC-PVTZ AUX)
    Blend: AUG-CC-PVTZ-JKFIT
	 Reference Energy          =    -157.3475829089350668 [Eh]
	 Singles Energy            =      -0.0000000000000001 [Eh]
	 Same-Spin Energy          =      -0.1654781613532623 [Eh]
	 Opposite-Spin Energy      =      -0.6394482320601855 [Eh]
	 Correlation Energy        =      -0.8049263934134480 [Eh]
	 Total Energy              =    -158.1525093023485056 [Eh]
	 SCS Total Energy          =    -158.1700801745250544 [Eh]
  @DF-RHF Final Energy:  -157.35048170291827
    Total Energy =                       -157.3504817029182732
  @DF-RHF Final Energy:  -157.35137785163906
    Total Energy =                       -157.3513778516390573
  @DF-RHF Final Energy:  -157.35166740139888
    Total Energy =                       -157.3516674013988847
  @DF-RHF Final Energy:  -157.35165133021127
    Total Energy =                       -157.3516513302112685
  Charge       = 0
  Multiplicity = 1
  Basis Set: AUG-CC-PVTZ
    Blend: AUG-CC-PVTZ
  Basis Set: (AUG-CC-PVTZ AUX)
    Blend: AUG-CC-PVTZ-JKFIT

    Orbital Energies (a.u.)
    -----------------------

    Doubly Occupied:

       1A    -11.211650     2A    -11.210866     3A    -11.205865
       4A    -11.205527     5A     -1.072662     6A     -0.980331
       7A     -0.862036     8A     -0.788809     9A     -0.638745
      10A     -0.583923    11A     -0.577899    12A     -0.569062
      13A     -0.511899    14A     -0.496591    15A     -0.470417
      16A     -0.457510    17A     -0.455332

  @DF-RHF Final Energy:  -157.35166012917077

   => Energetics <=

    Nuclear Repulsion Energy =            131.2802555747645101
    One-Electron Energy =                -470.6655830469977673
    Two-Electron Energy =                 182.0336673430624899
    DFT Exchange-Correlation Energy =       0.0000000000000000
    Empirical Dispersion Energy =           0.0000000000000000
    PCM Polarization Energy =               0.0000000000000000
    EFP Energy =                            0.0000000000000000
    Total Energy =                       -157.3516601291707673
  Basis Set: (AUG-CC-PVTZ AUX)
    Blend: AUG-CC-PVTZ-RI
    Molecular point group: c1
  Basis Set: AUG-CC-PVTZ
    Blend: AUG-CC-PVTZ
  Basis Set: (AUG-CC-PVTZ AUX)
    Blend: AUG-CC-PVTZ-JKFIT
  Basis Set: (AUG-CC-PVTZ AUX)
    Blend: AUG-CC-PVTZ-JKFIT
	 Reference Energy          =    -157.3516601291707673 [Eh]
	 Singles Energy            =      -0.0000000000000000 [Eh]
	 Same-Spin Energy          =      -0.1654375896598899 [Eh]
	 Opposite-Spin Energy      =      -0.6398408164487311 [Eh]
	 Correlation Energy        =      -0.8052784061086211 [Eh]
	 Total Energy              =    -158.1569385352793802 [Eh]

	 ================> DF-SCS-MP2 Energies <==================
	-----------------------------------------------------------
	 SCS Same-Spin Scale       =       0.3333333333333333 [-]
	 SCS Opposite-Spin Scale   =       1.2000000000000000 [-]
	 SCS Same-Spin Energy      =      -0.0551458632199633 [Eh]
	 SCS Opposite-Spin Energy  =      -0.7678089797384774 [Eh]
	 SCS Correlation Energy    =      -0.8229548429584407 [Eh]
	 SCS Total Energy          =    -158.1746149721292056 [Eh]
	-----------------------------------------------------------

  -Total Gradient:
     Atom            X                  Y                   Z
    ------   -----------------  -----------------  -----------------
       1       -0.000004957543     0.000001354409    -0.000003529267
       2       -0.000010116847    -0.000002038829    -0.000001423199
       3       -0.000001841770     0.000002092162     0.000004288827
       4        0.000003912884     0.000006200831     0.000005649142
       5       -0.000003583742    -0.000001239009     0.000005814831
       6        0.000002726321    -0.000010213704    -0.000004749004
       7        0.000352481492     0.000226322683    -0.001329895799
       8       -0.000000546649     0.000003679150     0.000001917312
       9       -0.000003322576     0.000006126599     0.000015763569
      10       -0.000440120885    -0.000748192773     0.001564618606
      11        0.000002240066    -0.000000634484     0.000004135875
      12       -0.000005299936     0.000010626797     0.000006823964
      13        0.000234983203    -0.001664911911    -0.000887332173
      14       -0.000126554017     0.002170828076     0.000617917318

  **** Optimization is complete! (in 6 steps) ****
    Final optimized geometry and variables:
    Molecular point group: c1

    Geometry (in Angstrom), charge = 0, multiplicity = 1:

    H           -2.352372020679     0.056171614602     0.322057071805
    H           -2.209212669052     1.690070566844    -0.316939522548
    H           -1.918075465749     0.304724158709    -1.363163924930
    C           -1.782261258962     0.690581398620    -0.354280538986
    H            0.239607339398     1.354612967617    -0.645192377157
    H           -0.191232893211     1.099519794921     1.029659143582
    C           -0.313773329831     0.694145914009     0.023825800231
    H           -0.259789818538    -1.360468250835     0.611095509275
    H            0.192350522025    -1.073016793194    -1.046917096839
    C            0.308040445781    -0.689259872895    -0.033033915083
    H            2.173781759304     0.320043656369     0.435397829774
    H            2.396275839511    -1.225285471927    -0.362260497838
    H            1.943847153132    -1.180152423977     1.323888721032
    C            1.786719265668    -0.694310105464     0.364527985482

*** Psi4 exiting successfully. Buy a developer a beer!
