                               Psi4 1.1 release

  ==> Input File <==

--------------------------------------------------------------------------

memory 5 Gb

molecule phepyrOH_neutral {
  symmetry C1
  0 1
  C      1.885   -1.036   -0.112
  C      2.878   -1.652   2.002
  C      0.807   -0.463   0.561
  C      1.800   -1.079   2.676
  C      4.324   -3.577   0.070
  C      4.834   -1.447   -0.925
  C      5.405   -4.098   -0.622
  C      5.893   -2.064   -1.572
  C      2.921   -1.631   0.608
  C      4.040   -2.225   -0.090
  C      0.764   -0.484   1.955
  N      6.200   -3.374   -1.442
  O      -0.288   0.076   2.612
  H      1.904   -1.012   -1.199
  H      3.678   -2.112   2.578
  H      0.003   -0.001   -0.006
  H      1.772   -1.098   3.762
  H      3.726   -4.216   0.711
  H      4.643   -0.389   -1.074
  H      5.668   -5.148   -0.533
  H      6.543   -1.501   -2.233
  H      -0.175   -0.018   3.571
  units Angstrom
}

dih_string = "1 9 10 5 240"
set optking fixed_dihedral = $dih_string

optimize('MP2/aug-cc-PVTZ')
--------------------------------------------------------------------------

    Molecular point group: c1
  Charge       = 0
  Multiplicity = 1
  Basis Set: AUG-CC-PVTZ
    Blend: AUG-CC-PVTZ
  Basis Set: (AUG-CC-PVTZ AUX)
    Blend: AUG-CC-PVTZ-JKFIT
  @DF-RHF Final Energy:  -551.28614994238433
    Total Energy =                       -551.2861499423843270
  Basis Set: (AUG-CC-PVTZ AUX)
    Blend: AUG-CC-PVTZ-RI
    Molecular point group: c1
  Basis Set: AUG-CC-PVTZ
    Blend: AUG-CC-PVTZ
  Basis Set: (AUG-CC-PVTZ AUX)
    Blend: AUG-CC-PVTZ-JKFIT
  Basis Set: (AUG-CC-PVTZ AUX)
    Blend: AUG-CC-PVTZ-JKFIT
	 Reference Energy          =    -551.2861499423843270 [Eh]
	 Singles Energy            =      -0.0000000000000001 [Eh]
	 Same-Spin Energy          =      -0.6044554827557969 [Eh]
	 Opposite-Spin Energy      =      -1.8300706628549366 [Eh]
	 Correlation Energy        =      -2.4345261456107332 [Eh]
	 Total Energy              =    -553.7206760879951162 [Eh]
	 SCS Total Energy          =    -553.6837198987288957 [Eh]
  @DF-RHF Final Energy:  -551.29147618582545
    Total Energy =                       -551.2914761858254451
  @DF-RHF Final Energy:  -551.29247772859844
    Total Energy =                       -551.2924777285984419
  @DF-RHF Final Energy:  -551.29238972709243
    Total Energy =                       -551.2923897270924272
  @DF-RHF Final Energy:  -551.29237104755464
    Total Energy =                       -551.2923710475546386
  @DF-RHF Final Energy:  -551.29237871441717
    Total Energy =                       -551.2923787144171683
  Charge       = 0
  Multiplicity = 1
  Basis Set: AUG-CC-PVTZ
    Blend: AUG-CC-PVTZ
  Basis Set: (AUG-CC-PVTZ AUX)
    Blend: AUG-CC-PVTZ-JKFIT

    Orbital Energies (a.u.)
    -----------------------

    Doubly Occupied:

       1A    -20.600453     2A    -15.561270     3A    -11.311629
       4A    -11.271625     5A    -11.271538     6A    -11.263262
       7A    -11.251586     8A    -11.249662     9A    -11.244651
      10A    -11.243029    11A    -11.236586    12A    -11.235874
      13A    -11.235537    14A     -1.417628    15A     -1.258115
      16A     -1.174280    17A     -1.104960    18A     -1.036847
      19A     -1.031172    20A     -1.012551    21A     -0.880162
      22A     -0.867708    23A     -0.848953    24A     -0.811855
      25A     -0.747052    26A     -0.725424    27A     -0.682334
      28A     -0.662112    29A     -0.657867    30A     -0.637050
      31A     -0.615708    32A     -0.603244    33A     -0.602074
      34A     -0.595336    35A     -0.581464    36A     -0.541736
      37A     -0.531112    38A     -0.522399    39A     -0.504751
      40A     -0.492317    41A     -0.416939    42A     -0.387666
      43A     -0.355998    44A     -0.347097    45A     -0.316491

  @DF-RHF Final Energy:  -551.29237165808627

   => Energetics <=

    Nuclear Repulsion Energy =            697.5949712886829275
    One-Electron Energy =               -2131.8804808066815895
    Two-Electron Energy =                 882.9931378599123946
    DFT Exchange-Correlation Energy =       0.0000000000000000
    Empirical Dispersion Energy =           0.0000000000000000
    PCM Polarization Energy =               0.0000000000000000
    EFP Energy =                            0.0000000000000000
    Total Energy =                       -551.2923716580862674
  Basis Set: (AUG-CC-PVTZ AUX)
    Blend: AUG-CC-PVTZ-RI
    Molecular point group: c1
  Basis Set: AUG-CC-PVTZ
    Blend: AUG-CC-PVTZ
  Basis Set: (AUG-CC-PVTZ AUX)
    Blend: AUG-CC-PVTZ-JKFIT
  Basis Set: (AUG-CC-PVTZ AUX)
    Blend: AUG-CC-PVTZ-JKFIT
	 Reference Energy          =    -551.2923716580862674 [Eh]
	 Singles Energy            =      -0.0000000000000002 [Eh]
	 Same-Spin Energy          =      -0.6036947114982577 [Eh]
	 Opposite-Spin Energy      =      -1.8279073795296408 [Eh]
	 Correlation Energy        =      -2.4316020910278984 [Eh]
	 Total Energy              =    -553.7239737491141796 [Eh]

	 ================> DF-SCS-MP2 Energies <==================
	-----------------------------------------------------------
	 SCS Same-Spin Scale       =       0.3333333333333333 [-]
	 SCS Opposite-Spin Scale   =       1.2000000000000000 [-]
	 SCS Same-Spin Energy      =      -0.2012315704994192 [Eh]
	 SCS Opposite-Spin Energy  =      -2.1934888554355689 [Eh]
	 SCS Correlation Energy    =      -2.3947204259349881 [Eh]
	 SCS Total Energy          =    -553.6870920840212875 [Eh]
	-----------------------------------------------------------

  -Total Gradient:
     Atom            X                  Y                   Z
    ------   -----------------  -----------------  -----------------
       1       -0.001548870944    -0.002790628721    -0.000047575851
       2       -0.000009396242    -0.000015766373     0.000066500143
       3       -0.000029700873     0.000032033566    -0.000029091020
       4        0.000003555494    -0.000014946800    -0.000007595678
       5       -0.001946834710    -0.000691824443    -0.002504191291
       6        0.000006974159     0.000021718848    -0.000033481496
       7        0.000089007299     0.000005530301    -0.000006857162
       8        0.000003764577    -0.000082970733    -0.000044719294
       9        0.001358700514     0.003846485316    -0.001230184017
      10        0.002135056148    -0.000341551336     0.003783090689
      11        0.000021292112    -0.000018001887     0.000036773236
      12       -0.000016600188     0.000028983348     0.000009661153
      13       -0.000028386336     0.000017190017    -0.000030764207
      14        0.000000100144    -0.000011913523    -0.000009183457
      15        0.000001759610    -0.000007251228    -0.000011722953
      16       -0.000000141767    -0.000004000117    -0.000001847580
      17       -0.000001463364     0.000007707992     0.000016358844
      18       -0.000027646259     0.000000953355     0.000007106698
      19       -0.000016920804     0.000003370316     0.000009992210
      20       -0.000019701177    -0.000001161506    -0.000006463519
      21        0.000020117600     0.000019190639     0.000004684276
      22        0.000005335007    -0.000003147043     0.000029510272

  **** Optimization is complete! (in 7 steps) ****
    Final optimized geometry and variables:
    Molecular point group: c1

    Geometry (in Angstrom), charge = 0, multiplicity = 1:

    C           -1.223259153738     0.767777330954    -0.544516871180
    C           -0.284184415876     0.094014428049     1.551969664019
    C           -2.315033005026     1.310146533695     0.110759811057
    C           -1.371890537814     0.639520842379     2.216297851114
    C            1.238209701968    -1.801312308052    -0.385144398188
    C            1.712332551757     0.268609803293    -1.442909293375
    C            2.288000183702    -2.352370748420    -1.103543037205
    C            2.740382734434    -0.368991263477    -2.119805553347
    C           -0.186959923742     0.163797296304     0.165410350120
    C            0.939096315659    -0.451801627577    -0.538818345242
    C           -2.389459099558     1.249988984875     1.495467947591
    N            3.039827879900    -1.660575503361    -1.962985791870
    O           -3.485652708769     1.803558584266     2.085434688625
    H           -1.175991721638     0.803859000026    -1.622970444801
    H            0.506106969839    -0.376947506728     2.117829056073
    H           -3.121159620411     1.774144595607    -0.435847626351
    H           -1.427228275805     0.591903170285     3.295191926630
    H            0.652502526299    -2.415000786890     0.282828819390
    H            1.521164212587     1.318825299415    -1.605421609889
    H            2.530874949579    -3.399967694360    -0.992593975924
    H            3.354870489280     0.182317412458    -2.817893545767
    H           -3.417669677864     1.692369328240     3.038488920399

*** Psi4 exiting successfully. Buy a developer a beer!
