                              Psi4 1.0.0 Driver

  ==> Input File <==

--------------------------------------------------------------------------

memory 1000 mb

molecule butane {
  symmetry C1
  0 1
  H      1.604   0.760   -8.260
  H      1.745   2.388   -8.880
  H      2.043   1.024   -9.930
  C      2.142   1.395   -8.932
  H      4.169   2.051   -9.210
  H      3.731   1.788   -7.539
  C      3.631   1.416   -8.537
  H      3.575   -0.615   -9.234
  H      5.189   0.020   -9.026
  C      4.203   -0.012   -8.612
  H      4.657   -1.610   -7.250
  H      3.274   -0.650   -6.783
  H      4.888   -0.015   -6.576
  C      4.260   -0.618   -7.198
  units Angstrom
}

dih_string = "4 7 10 14 260"
set optking fixed_dihedral = $dih_string

optimize('MP2/6-31G(d)')
--------------------------------------------------------------------------

    Molecular point group: c1
  Charge       = 0
  Multiplicity = 1
  Basis Set: 6-31G(D)
  Basis Set:
  @DF-RHF Final Energy:  -157.28926718120962
    Total Energy =                       -157.2892671812097376
  Basis Set:
    Molecular point group: c1
  Basis Set: 6-31G(D)
  Basis Set:
  Basis Set:
	 Reference Energy          =    -157.2892671812096239 [Eh]
	 Singles Energy            =      -0.0000000000000000 [Eh]
	 Same-Spin Energy          =      -0.1244811570953559 [Eh]
	 Opposite-Spin Energy      =      -0.4204290804513009 [Eh]
	 Correlation Energy        =      -0.5449102375466568 [Eh]
	 Total Energy              =    -157.8341774187562692 [Eh]
	 SCS Total Energy          =    -157.8352757967829803 [Eh]
  Basis Set: 6-31G(D)
  Basis Set:
  @DF-RHF Final Energy:  -157.29217666187694
    Total Energy =                       -157.2921766618767947
  Basis Set:
  Basis Set: 6-31G(D)
  Basis Set:
  @DF-RHF Final Energy:  -157.29303284888991
    Total Energy =                       -157.2930328488898795
  @DF-RHF Final Energy:  -157.29333072352884
    Total Energy =                       -157.2933307235289249
  @DF-RHF Final Energy:  -157.29338921977461
    Total Energy =                       -157.2933892197743830
  @DF-RHF Final Energy:  -157.29340142793694
    Total Energy =                       -157.2934014279371127
  @DF-RHF Final Energy:  -157.29338634190543
    Total Energy =                       -157.2933863419052898
	 Singles Energy            =      -0.0000000000000000 [Eh]
	 Same-Spin Energy          =      -0.1243655646587980 [Eh]
	 Opposite-Spin Energy      =      -0.4224234623345757 [Eh]
	 Correlation Energy        =      -0.5467890269933737 [Eh]
	 Total Energy              =    -157.8401753688987981 [Eh]
	 SCS Total Energy          =    -157.8417496849265262 [Eh]
  Charge       = 0
  Multiplicity = 1
  Basis Set: 6-31G(D)
  Basis Set:

    Orbital Energies (a.u.)
    -----------------------

    Doubly Occupied:

       1A    -11.215544     2A    -11.214974     3A    -11.210500
       4A    -11.210495     5A     -1.068698     6A     -0.977600
       7A     -0.863456     8A     -0.782829     9A     -0.624668
      10A     -0.609652    11A     -0.577257    12A     -0.542422
      13A     -0.515853    14A     -0.506294    15A     -0.467140
      16A     -0.454525    17A     -0.452703

  @DF-RHF Final Energy:  -157.29339238296268

   => Energetics <=

    Nuclear Repulsion Energy =            131.6564987718755333
    One-Electron Energy =                -471.3105622276843860
    Two-Electron Energy =                 182.3606710728463156
    DFT Exchange-Correlation Energy =       0.0000000000000000
    Empirical Dispersion Energy =           0.0000000000000000
    PCM Polarization Energy =               0.0000000000000000
    EFP Energy =                            0.0000000000000000
    Total Energy =                       -157.2933923829625371
  Basis Set:
    Molecular point group: c1
  Basis Set: 6-31G(D)
  Basis Set:
  Basis Set:
	 Reference Energy          =    -157.2933923829626792 [Eh]
	 Singles Energy            =      -0.0000000000000000 [Eh]
	 Same-Spin Energy          =      -0.1243628245893384 [Eh]
	 Opposite-Spin Energy      =      -0.4224203495613771 [Eh]
	 Correlation Energy        =      -0.5467831741507154 [Eh]
	 Total Energy              =    -157.8401755571133833 [Eh]

	 ================> DF-SCS-MP2 Energies <==================
	-----------------------------------------------------------
	 SCS Same-Spin Scale       =       0.3333333333333333 [-]
	 SCS Opposite-Spin Scale   =       1.2000000000000000 [-]
	 SCS Same-Spin Energy      =      -0.0414542748631128 [Eh]
	 SCS Opposite-Spin Energy  =      -0.5069044194736525 [Eh]
	 SCS Correlation Energy    =      -0.5483586943367653 [Eh]
	 SCS Total Energy          =    -157.8417510772994490 [Eh]
	-----------------------------------------------------------

  -Total Gradient:
     Atom            X                  Y                   Z
    ------   -----------------  -----------------  -----------------
       1       -0.000004743210     0.000000428416    -0.000000733744
       2       -0.000002210586     0.000003488980     0.000000352677
       3        0.000005212924     0.000003641762     0.000000603344
       4        0.000738626200     0.000319124068    -0.002638868062
       5       -0.000006980703     0.000000369245     0.000005458316
       6       -0.000010514325    -0.000002719690    -0.000011337796
       7       -0.000064381797     0.000012509877     0.003774631628
       8        0.000006191085     0.000000844712     0.000014434529
       9       -0.000005749441    -0.000006015830     0.000003685897
      10       -0.003165392147    -0.001428225312    -0.001480685563
      11        0.000001049735    -0.000003707200     0.000000374696
      12       -0.000000011009    -0.000002512982     0.000003961305
      13        0.000002342360    -0.000000340997    -0.000006000313
      14        0.002506560913     0.001103114951     0.000334123087

  **** Optimization is complete! (in 8 steps) ****
    Final optimized geometry and variables:
    Molecular point group: c1

    Geometry (in Angstrom), charge = 0, multiplicity = 1:

    H           -2.008150361397     0.204776646355    -0.010650663447
    H           -1.856280303957     1.855697473190    -0.623812863742
    H           -1.532804763131     0.481666637413    -1.690138297781
    C           -1.420486066953     0.853465425601    -0.667865198455
    H            0.598832389479     1.507830103656    -0.953472068961
    H            0.160751859517     1.316622100639     0.730992300463
    C            0.049927984987     0.861199810115    -0.259811368674
    H            0.097034251864    -1.203620462708    -0.914092764352
    H            1.684519480003    -0.506917318235    -0.668347995798
    C            0.671464718149    -0.544975052299    -0.252580035914
    H            1.149305439445    -2.165601724102     1.125965025985
    H           -0.244310841807    -1.192152382361     1.610528408685
    H            1.389942456644    -0.544288315434     1.791609762466
    C            0.746222654769    -1.149030841781     1.146781623760

*** Psi4 exiting successfully. Buy a developer a beer!
