                              Psi4 1.0.0 Driver

  ==> Input File <==

--------------------------------------------------------------------------

memory 1000 mb

molecule butane {
  symmetry C1
  0 1
  H      1.604   0.760   -8.260
  H      1.745   2.388   -8.880
  H      2.043   1.024   -9.930
  C      2.142   1.395   -8.932
  H      4.169   2.051   -9.210
  H      3.731   1.788   -7.539
  C      3.631   1.416   -8.537
  H      3.575   -0.615   -9.234
  H      5.189   0.020   -9.026
  C      4.203   -0.012   -8.612
  H      4.657   -1.610   -7.250
  H      3.274   -0.650   -6.783
  H      4.888   -0.015   -6.576
  C      4.260   -0.618   -7.198
  units Angstrom
}

dih_string = "4 7 10 14 260"
set optking fixed_dihedral = $dih_string

optimize('MP2/6-31G(d)')
--------------------------------------------------------------------------

    Molecular point group: c1
  Charge       = 0
  Multiplicity = 1
  Basis Set: 6-31G(D)
  Basis Set:
  @DF-RHF Final Energy:  -157.28926718120940
    Total Energy =                       -157.2892671812095102
  Basis Set:
    Molecular point group: c1
  Basis Set: 6-31G(D)
  Basis Set:
  Basis Set:
	 Reference Energy          =    -157.2892671812093965 [Eh]
	 Singles Energy            =      -0.0000000000000000 [Eh]
	 Same-Spin Energy          =      -0.1244811570953560 [Eh]
	 Opposite-Spin Energy      =      -0.4204290804513050 [Eh]
	 Correlation Energy        =      -0.5449102375466610 [Eh]
	 Total Energy              =    -157.8341774187560702 [Eh]
	 SCS Total Energy          =    -157.8352757967827529 [Eh]
  Basis Set: 6-31G(D)
  Basis Set:
  @DF-RHF Final Energy:  -157.29217666141264
    Total Energy =                       -157.2921766614128956
  Basis Set:
  Basis Set: 6-31G(D)
  Basis Set:
  @DF-RHF Final Energy:  -157.29303284861831
    Total Energy =                       -157.2930328486183384
  @DF-RHF Final Energy:  -157.29333072353640
    Total Energy =                       -157.2933307235361724
  @DF-RHF Final Energy:  -157.29338921986238
    Total Energy =                       -157.2933892198623766
  @DF-RHF Final Energy:  -157.29340142790014
    Total Energy =                       -157.2934014279000507
  @DF-RHF Final Energy:  -157.29338634192354
    Total Energy =                       -157.2933863419235649
	 Singles Energy            =      -0.0000000000000000 [Eh]
	 Same-Spin Energy          =      -0.1243655646506320 [Eh]
	 Opposite-Spin Energy      =      -0.4224234622560957 [Eh]
	 Correlation Energy        =      -0.5467890269067276 [Eh]
	 Total Energy              =    -157.8401753688302733 [Eh]
	 SCS Total Energy          =    -157.8417496848477413 [Eh]
  Charge       = 0
  Multiplicity = 1
  Basis Set: 6-31G(D)
  Basis Set:

    Orbital Energies (a.u.)
    -----------------------

    Doubly Occupied:

       1A    -11.215544     2A    -11.214974     3A    -11.210500
       4A    -11.210495     5A     -1.068698     6A     -0.977600
       7A     -0.863456     8A     -0.782829     9A     -0.624668
      10A     -0.609652    11A     -0.577257    12A     -0.542422
      13A     -0.515853    14A     -0.506294    15A     -0.467140
      16A     -0.454525    17A     -0.452703

  @DF-RHF Final Energy:  -157.29339238273838

   => Energetics <=

    Nuclear Repulsion Energy =            131.6564987745840085
    One-Electron Energy =                -471.3105622332257667
    Two-Electron Energy =                 182.3606710759032694
    DFT Exchange-Correlation Energy =       0.0000000000000000
    Empirical Dispersion Energy =           0.0000000000000000
    PCM Polarization Energy =               0.0000000000000000
    EFP Energy =                            0.0000000000000000
    Total Energy =                       -157.2933923827384888
  Basis Set:
    Molecular point group: c1
  Basis Set: 6-31G(D)
  Basis Set:
  Basis Set:
	 Reference Energy          =    -157.2933923827383751 [Eh]
	 Singles Energy            =      -0.0000000000000000 [Eh]
	 Same-Spin Energy          =      -0.1243628246010209 [Eh]
	 Opposite-Spin Energy      =      -0.4224203496111343 [Eh]
	 Correlation Energy        =      -0.5467831742121553 [Eh]
	 Total Energy              =    -157.8401755569505269 [Eh]

	 ================> DF-SCS-MP2 Energies <==================
	-----------------------------------------------------------
	 SCS Same-Spin Scale       =       0.3333333333333333 [-]
	 SCS Opposite-Spin Scale   =       1.2000000000000000 [-]
	 SCS Same-Spin Energy      =      -0.0414542748670070 [Eh]
	 SCS Opposite-Spin Energy  =      -0.5069044195333612 [Eh]
	 SCS Correlation Energy    =      -0.5483586944003681 [Eh]
	 SCS Total Energy          =    -157.8417510771387526 [Eh]
	-----------------------------------------------------------

  -Total Gradient:
     Atom            X                  Y                   Z
    ------   -----------------  -----------------  -----------------
       1       -0.000004743649     0.000000428094    -0.000000733417
       2       -0.000002210809     0.000003489665     0.000000352698
       3        0.000005212908     0.000003641559     0.000000602822
       4        0.000738626899     0.000319124148    -0.002638867775
       5       -0.000006980413     0.000000369433     0.000005458053
       6       -0.000010514291    -0.000002719668    -0.000011337602
       7       -0.000064381803     0.000012508736     0.003774631584
       8        0.000006190737     0.000000844394     0.000014434245
       9       -0.000005749127    -0.000006015774     0.000003685760
      10       -0.003165392407    -0.001428224139    -0.001480684871
      11        0.000001050065    -0.000003707919     0.000000374600
      12       -0.000000011578    -0.000002513118     0.000003961689
      13        0.000002342700    -0.000000340685    -0.000005999920
      14        0.002506560766     0.001103115275     0.000334122135

  **** Optimization is complete! (in 8 steps) ****
    Final optimized geometry and variables:
    Molecular point group: c1

    Geometry (in Angstrom), charge = 0, multiplicity = 1:

    H           -2.008150345087     0.204776837319    -0.010650522068
    H           -1.856280164820     1.855697727555    -0.623812523701
    H           -1.532804811862     0.481666994407    -1.690138148243
    C           -1.420486024746     0.853465643850    -0.667865007916
    H            0.598832476174     1.507830172554    -0.953471905822
    H            0.160752021626     1.316621991187     0.730992463507
    C            0.049928050024     0.861199839627    -0.259811258827
    H            0.097034090313    -1.203620351230    -0.914092927921
    H            1.684519397161    -0.506917384731    -0.668348154413
    C            0.671464653899    -0.544975080273    -0.252580143599
    H            1.149305307794    -2.165601976542     1.125964677194
    H           -0.244310864171    -1.192152578408     1.610528264123
    H            1.389942500830    -0.544288676226     1.791609616326
    C            0.746222611664    -1.149031061356     1.146781431440

*** Psi4 exiting successfully. Buy a developer a beer!
