                               Psi4 1.1 release

  ==> Input File <==

--------------------------------------------------------------------------

molecule phepyr {
  symmetry C1
  0 1
  C      1.885   -1.036   -0.112
  C      0.807   -0.463   0.561
  C      2.921   -1.631   0.608
  C      0.764   -0.484   1.955
  C      2.878   -1.652   2.002
  C      0.867   -0.277   4.805
  C      2.599   -1.946   4.833
  C      0.862   -0.337   6.190
  C      2.516   -1.931   6.216
  C      1.800   -1.079   2.676
  C      1.755   -1.100   4.122
  N      1.667   -1.145   6.915
  H      1.917   -1.021   -1.198
  H      -0.001   -0.002   0.000
  H      3.760   -2.079   0.084
  H      -0.084   -0.033   2.466
  H      3.693   -2.120   2.550
  H      0.192   0.395   4.285
  H      3.305   -2.602   4.334
  H      0.187   0.284   6.769
  H      3.154   -2.571   6.817
  units Angstrom
}

dih_string = "4 10 11 6 345"
set optking fixed_dihedral = $dih_string

optimize('MP2/aug-cc-PVTZ')
--------------------------------------------------------------------------

    Molecular point group: c1
  Charge       = 0
  Multiplicity = 1
  Basis Set: AUG-CC-PVTZ
    Blend: AUG-CC-PVTZ
  Basis Set: (AUG-CC-PVTZ AUX)
    Blend: AUG-CC-PVTZ-JKFIT
  @DF-RHF Final Energy:  -476.39158739378018
    Total Energy =                       -476.3915873937802417
  Basis Set: (AUG-CC-PVTZ AUX)
    Blend: AUG-CC-PVTZ-RI
    Molecular point group: c1
  Basis Set: AUG-CC-PVTZ
    Blend: AUG-CC-PVTZ
  Basis Set: (AUG-CC-PVTZ AUX)
    Blend: AUG-CC-PVTZ-JKFIT
  Basis Set: (AUG-CC-PVTZ AUX)
    Blend: AUG-CC-PVTZ-JKFIT
	 Reference Energy          =    -476.3915873937801848 [Eh]
	 Singles Energy            =      -0.0000000000000000 [Eh]
	 Same-Spin Energy          =      -0.5358368150921670 [Eh]
	 Opposite-Spin Energy      =      -1.6446883158485039 [Eh]
	 Correlation Energy        =      -2.1805251309406710 [Eh]
	 Total Energy              =    -478.5721125247208647 [Eh]
	 SCS Total Energy          =    -478.5438256444957688 [Eh]
  @DF-RHF Final Energy:  -476.39820822953550
    Total Energy =                       -476.3982082295354985
  @DF-RHF Final Energy:  -476.39980000893615
    Total Energy =                       -476.3998000089361540
  @DF-RHF Final Energy:  -476.39985044381314
    Total Energy =                       -476.3998504438131931
  @DF-RHF Final Energy:  -476.39985039284721
    Total Energy =                       -476.3998503928472701
  @DF-RHF Final Energy:  -476.39985191783887
    Total Energy =                       -476.3998519178388733
  Charge       = 0
  Multiplicity = 1
  Basis Set: AUG-CC-PVTZ
    Blend: AUG-CC-PVTZ
  Basis Set: (AUG-CC-PVTZ AUX)
    Blend: AUG-CC-PVTZ-JKFIT

    Orbital Energies (a.u.)
    -----------------------

    Doubly Occupied:

       1A    -15.561443     2A    -11.271941     3A    -11.271912
       4A    -11.268076     5A    -11.255508     6A    -11.245330
       7A    -11.245300     8A    -11.244569     9A    -11.243323
      10A    -11.242791    11A    -11.237063    12A    -11.237030
      13A     -1.259001    14A     -1.176256    15A     -1.108543
      16A     -1.038168    17A     -1.026155    18A     -1.019847
      19A     -0.883146    20A     -0.870075    21A     -0.827147
      22A     -0.810742    23A     -0.737672    24A     -0.685703
      25A     -0.674504    26A     -0.665321    27A     -0.630619
      28A     -0.623245    29A     -0.607746    30A     -0.588232
      31A     -0.584530    32A     -0.551674    33A     -0.528374
      34A     -0.515929    35A     -0.512716    36A     -0.493321
      37A     -0.418580    38A     -0.411227    39A     -0.352102
      40A     -0.346134    41A     -0.320316

  @DF-RHF Final Energy:  -476.39984913221076

   => Energetics <=

    Nuclear Repulsion Energy =            605.9388943449524731
    One-Electron Energy =               -1845.4948626518842048
    Two-Electron Energy =                 763.1561191747210842
    DFT Exchange-Correlation Energy =       0.0000000000000000
    Empirical Dispersion Energy =           0.0000000000000000
    PCM Polarization Energy =               0.0000000000000000
    EFP Energy =                            0.0000000000000000
    Total Energy =                       -476.3998491322107611
  Basis Set: (AUG-CC-PVTZ AUX)
    Blend: AUG-CC-PVTZ-RI
    Molecular point group: c1
  Basis Set: AUG-CC-PVTZ
    Blend: AUG-CC-PVTZ
  Basis Set: (AUG-CC-PVTZ AUX)
    Blend: AUG-CC-PVTZ-JKFIT
  Basis Set: (AUG-CC-PVTZ AUX)
    Blend: AUG-CC-PVTZ-JKFIT
	 Reference Energy          =    -476.3998491322107611 [Eh]
	 Singles Energy            =      -0.0000000000000002 [Eh]
	 Same-Spin Energy          =      -0.5345359866268146 [Eh]
	 Opposite-Spin Energy      =      -1.6417593695375869 [Eh]
	 Correlation Energy        =      -2.1762953561644016 [Eh]
	 Total Energy              =    -478.5761444883751778 [Eh]

	 ================> DF-SCS-MP2 Energies <==================
	-----------------------------------------------------------
	 SCS Same-Spin Scale       =       0.3333333333333333 [-]
	 SCS Opposite-Spin Scale   =       1.2000000000000000 [-]
	 SCS Same-Spin Energy      =      -0.1781786622089382 [Eh]
	 SCS Opposite-Spin Energy  =      -1.9701112434451042 [Eh]
	 SCS Correlation Energy    =      -2.1482899056540425 [Eh]
	 SCS Total Energy          =    -478.5481390378648143 [Eh]
	-----------------------------------------------------------

  -Total Gradient:
     Atom            X                  Y                   Z
    ------   -----------------  -----------------  -----------------
       1        0.000001135087    -0.000003909002    -0.000001650712
       2       -0.000000327742    -0.000001088776    -0.000007501899
       3        0.000002821641     0.000007172162    -0.000012514003
       4        0.001196901511     0.002188449197     0.000014231642
       5        0.000006878148    -0.000006623915    -0.000005726332
       6       -0.001762986884    -0.001811642445    -0.000025752032
       7        0.000005177539    -0.000010363601     0.000008055293
       8       -0.000000860741    -0.000009167175     0.000017899701
       9       -0.000001859883     0.000007892096     0.000022589291
      10       -0.002686297226    -0.004180160711    -0.000030331890
      11        0.003238353649     0.003817575404     0.000023721051
      12        0.000001082133    -0.000001222353    -0.000010427370
      13       -0.000000742895    -0.000001826140     0.000008444153
      14        0.000002396437     0.000000843403     0.000004467800
      15       -0.000002225940     0.000002269461     0.000005097740
      16        0.000012378653    -0.000010818900    -0.000003637588
      17       -0.000015323246     0.000008028807    -0.000001873131
      18        0.000010882649    -0.000001588833     0.000006696500
      19       -0.000008833666     0.000005000146     0.000002376022
      20        0.000001005100     0.000002253655    -0.000007017895
      21        0.000000445672    -0.000001072480    -0.000007146342

  **** Optimization is complete! (in 7 steps) ****
    Final optimized geometry and variables:
    Molecular point group: c1

    Geometry (in Angstrom), charge = 0, multiplicity = 1:

    C            0.108366554689     0.053248774122    -3.562639226930
    C           -0.972220139759     0.601585212640    -2.885997961911
    C            1.148114829176    -0.513577954401    -2.838938198278
    C           -1.013749886031     0.577544318616    -1.500854948665
    C            1.103394440247    -0.535277785521    -1.453884223246
    C           -0.875412960214     0.817955698656     1.433312683767
    C            0.788375369719    -0.859457634131     1.460562668342
    C           -0.885907792660     0.762015164830     2.817437444598
    C            0.710346476293    -0.847228137987     2.843564318334
    C            0.017841977283     0.000331713127    -0.758272264928
    C           -0.012579150275    -0.001938015510     0.708611713356
    N           -0.109683305243    -0.052897552914     3.534956711270
    H            0.141495614436     0.070819109032    -4.641129255391
    H           -1.788233457118     1.043292126447    -3.437112811873
    H            2.000923282542    -0.930250783419    -3.352549864544
    H           -1.875684591091     0.986491225502    -0.998029934039
    H            1.937085903626    -0.952516084773    -0.911576194412
    H           -1.521211322955     1.524391797863     0.936729193734
    H            1.458987995454    -1.556243884459     0.983466057740
    H           -1.550142140059     1.405761539336     3.377230453920
    H            1.332781309300    -1.514040987450     3.424031232396

*** Psi4 exiting successfully. Buy a developer a beer!
