                               Psi4 1.1 release

  ==> Input File <==

--------------------------------------------------------------------------

memory 5000 mb

molecule butane {
  symmetry C1
  0 1
  H      2.038   1.713   -9.948
  H      1.759   0.401   -8.828
  H      1.594   2.056   -8.294
  C      2.142   1.395   -8.932
  H      4.169   2.051   -9.210
  H      3.731   1.788   -7.539
  C      3.631   1.416   -8.537
  H      3.665   -0.647   -7.940
  H      4.104   -0.384   -9.610
  C      4.203   -0.012   -8.612
  H      6.088   -0.983   -8.270
  H      5.791   0.381   -7.220
  H      6.230   0.644   -8.890
  C      5.691   0.009   -8.218
  units Angstrom
}

dih_string = "10 7 4 3 140"
set optking fixed_dihedral = $dih_string

optimize('MP2/aug-cc-pvtz')
--------------------------------------------------------------------------

    Molecular point group: c1
  Charge       = 0
  Multiplicity = 1
  Basis Set: AUG-CC-PVTZ
    Blend: AUG-CC-PVTZ
  Basis Set: (AUG-CC-PVTZ AUX)
    Blend: AUG-CC-PVTZ-JKFIT
  @DF-RHF Final Energy:  -157.34862376793447
    Total Energy =                       -157.3486237679344697
  Basis Set: (AUG-CC-PVTZ AUX)
    Blend: AUG-CC-PVTZ-RI
    Molecular point group: c1
  Basis Set: AUG-CC-PVTZ
    Blend: AUG-CC-PVTZ
  Basis Set: (AUG-CC-PVTZ AUX)
    Blend: AUG-CC-PVTZ-JKFIT
  Basis Set: (AUG-CC-PVTZ AUX)
    Blend: AUG-CC-PVTZ-JKFIT
	 Reference Energy          =    -157.3486237679344697 [Eh]
	 Singles Energy            =      -0.0000000000000000 [Eh]
	 Same-Spin Energy          =      -0.1654603642747434 [Eh]
	 Opposite-Spin Energy      =      -0.6393203270849707 [Eh]
	 Correlation Energy        =      -0.8047806913597141 [Eh]
	 Total Energy              =    -158.1534044592941939 [Eh]
	 SCS Total Energy          =    -158.1709616151946705 [Eh]
  @DF-RHF Final Energy:  -157.35145386477402
    Total Energy =                       -157.3514538647740153
  @DF-RHF Final Energy:  -157.35234094138573
    Total Energy =                       -157.3523409413857337
  @DF-RHF Final Energy:  -157.35266398186781
    Total Energy =                       -157.3526639818678063
  @DF-RHF Final Energy:  -157.35269567454591
    Total Energy =                       -157.3526956745459131
  @DF-RHF Final Energy:  -157.35269923517609
    Total Energy =                       -157.3526992351760896
  @DF-RHF Final Energy:  -157.35263711118569
    Total Energy =                       -157.3526371111856861
  @DF-RHF Final Energy:  -157.35269431973285
    Total Energy =                       -157.3526943197328478
  @DF-RHF Final Energy:  -157.35266857840512
    Total Energy =                       -157.3526685784051153
  @DF-RHF Final Energy:  -157.35268537422905
    Total Energy =                       -157.3526853742290541
  @DF-RHF Final Energy:  -157.35269032581391
    Total Energy =                       -157.3526903258139100
  Charge       = 0
  Multiplicity = 1
  Basis Set: AUG-CC-PVTZ
    Blend: AUG-CC-PVTZ
  Basis Set: (AUG-CC-PVTZ AUX)
    Blend: AUG-CC-PVTZ-JKFIT

    Orbital Energies (a.u.)
    -----------------------

    Doubly Occupied:

       1A    -11.211619     2A    -11.210868     3A    -11.205925
       4A    -11.205640     5A     -1.073188     6A     -0.980800
       7A     -0.861694     8A     -0.788769     9A     -0.639619
      10A     -0.583614    11A     -0.577319    12A     -0.570027
      13A     -0.511206    14A     -0.497018    15A     -0.470360
      16A     -0.458895    17A     -0.455213

  @DF-RHF Final Energy:  -157.35268913915002

   => Energetics <=

    Nuclear Repulsion Energy =            131.3626570114935816
    One-Electron Energy =                -470.8271456896335394
    Two-Electron Energy =                 182.1117995389899420
    DFT Exchange-Correlation Energy =       0.0000000000000000
    Empirical Dispersion Energy =           0.0000000000000000
    PCM Polarization Energy =               0.0000000000000000
    EFP Energy =                            0.0000000000000000
    Total Energy =                       -157.3526891391500158
  Basis Set: (AUG-CC-PVTZ AUX)
    Blend: AUG-CC-PVTZ-RI
    Molecular point group: c1
  Basis Set: AUG-CC-PVTZ
    Blend: AUG-CC-PVTZ
  Basis Set: (AUG-CC-PVTZ AUX)
    Blend: AUG-CC-PVTZ-JKFIT
  Basis Set: (AUG-CC-PVTZ AUX)
    Blend: AUG-CC-PVTZ-JKFIT
	 Reference Energy          =    -157.3526891391500158 [Eh]
	 Singles Energy            =      -0.0000000000000000 [Eh]
	 Same-Spin Energy          =      -0.1654651484861667 [Eh]
	 Opposite-Spin Energy      =      -0.6397220935555269 [Eh]
	 Correlation Energy        =      -0.8051872420416936 [Eh]
	 Total Energy              =    -158.1578763811916986 [Eh]

	 ================> DF-SCS-MP2 Energies <==================
	-----------------------------------------------------------
	 SCS Same-Spin Scale       =       0.3333333333333333 [-]
	 SCS Opposite-Spin Scale   =       1.2000000000000000 [-]
	 SCS Same-Spin Energy      =      -0.0551550494953889 [Eh]
	 SCS Opposite-Spin Energy  =      -0.7676665122666323 [Eh]
	 SCS Correlation Energy    =      -0.8228215617620211 [Eh]
	 SCS Total Energy          =    -158.1755107009120422 [Eh]
	-----------------------------------------------------------

  -Total Gradient:
     Atom            X                  Y                   Z
    ------   -----------------  -----------------  -----------------
       1       -0.000028736300    -0.000000937155    -0.000022542520
       2        0.000010623559     0.000014328351     0.000010607226
       3       -0.000585072445    -0.002384207253     0.002033724046
       4        0.000531425510     0.002884251113    -0.001753356999
       5       -0.000026986705     0.000043409629    -0.000002956939
       6        0.000021657524    -0.000021863801    -0.000006953392
       7        0.000715436056    -0.000167735554    -0.002493230178
       8       -0.000000822127    -0.000018893118     0.000004280736
       9        0.000015205356     0.000016906145    -0.000005217096
      10       -0.000634225315    -0.000373019652     0.002259802724
      11        0.000003923098    -0.000005690895    -0.000006216079
      12       -0.000001961059     0.000001494523     0.000004654855
      13        0.000016186602     0.000007605529    -0.000001468161
      14       -0.000036653758     0.000004352141    -0.000021128226

  **** Optimization is complete! (in 12 steps) ****
    Final optimized geometry and variables:
    Molecular point group: c1

    Geometry (in Angstrom), charge = 0, multiplicity = 1:

    H           -1.906724280661     0.988179759231    -1.417184151765
    H           -2.208865029412    -0.288744708111    -0.255014198055
    H           -2.366767577387     1.374822708697     0.243059950580
    C           -1.777448439985     0.704009670019    -0.376518966265
    H            0.270296098658     1.366103661291    -0.599492874665
    H           -0.203182863924     1.068949855589     1.051673890617
    C           -0.305966032023     0.691355743539     0.033683368827
    H           -0.247987297825    -1.347174663298     0.658459564606
    H            0.180814034240    -1.108362471491    -1.019510544939
    C            0.307694183454    -0.695506608618    -0.017045804266
    H            2.197008322184    -1.700695811845     0.330479498629
    H            1.917803496324    -0.301874106449     1.361899846654
    H            2.350361296319    -0.075071106594    -0.326843689281
    C            1.777168516452    -0.697854334765     0.357569510511

*** Psi4 exiting successfully. Buy a developer a beer!
