                               Psi4 1.1 release

  ==> Input File <==

--------------------------------------------------------------------------

memory 5 Gb

molecule phepyrOH_cation {
  symmetry C1
  1 1
  C      1.885   -1.036   -0.112
  C      2.878   -1.652   2.002
  C      0.807   -0.463   0.561
  C      1.800   -1.079   2.676
  C      5.160   -1.457   -0.392
  C      3.997   -3.566   -0.461
  C      6.218   -2.054   -1.063
  C      5.085   -4.109   -1.130
  C      2.921   -1.631   0.608
  C      4.040   -2.225   -0.090
  C      0.764   -0.484   1.955
  N      6.151   -3.347   -1.409
  O      -0.288   0.076   2.612
  H      1.904   -1.012   -1.199
  H      3.678   -2.112   2.578
  H      0.003   -0.001   -0.006
  H      1.772   -1.098   3.762
  H      5.220   -0.409   -0.115
  H      3.136   -4.189   -0.239
  H      7.126   -1.535   -1.338
  H      5.139   -5.139   -1.456
  H      6.939   -3.765   -1.902
  H      -0.175   -0.018   3.571
  units Angstrom
}

dih_string = "1 9 10 5 90"
set optking fixed_dihedral = $dih_string

optimize('MP2/aug-cc-PVTZ')
--------------------------------------------------------------------------

    Molecular point group: c1
  Charge       = 1
  Multiplicity = 1
  Basis Set: AUG-CC-PVTZ
    Blend: AUG-CC-PVTZ
  Basis Set: (AUG-CC-PVTZ AUX)
    Blend: AUG-CC-PVTZ-JKFIT
  @DF-RHF Final Energy:  -551.66899031904904
    Total Energy =                       -551.6689903190490440
  Basis Set: (AUG-CC-PVTZ AUX)
    Blend: AUG-CC-PVTZ-RI
    Molecular point group: c1
  Basis Set: AUG-CC-PVTZ
    Blend: AUG-CC-PVTZ
  Basis Set: (AUG-CC-PVTZ AUX)
    Blend: AUG-CC-PVTZ-JKFIT
  Basis Set: (AUG-CC-PVTZ AUX)
    Blend: AUG-CC-PVTZ-JKFIT
	 Reference Energy          =    -551.6689903190490440 [Eh]
	 Singles Energy            =      -0.0000000000000006 [Eh]
	 Same-Spin Energy          =      -0.5958634942170331 [Eh]
	 Opposite-Spin Energy      =      -1.8248980874816954 [Eh]
	 Correlation Energy        =      -2.4207615816987289 [Eh]
	 Total Energy              =    -554.0897519007477285 [Eh]
	 SCS Total Energy          =    -554.0574891887661124 [Eh]
  @DF-RHF Final Energy:  -551.67344878639722
    Total Energy =                       -551.6734487863972163
  @DF-RHF Final Energy:  -551.67396854037133
    Total Energy =                       -551.6739685403713338
  @DF-RHF Final Energy:  -551.67393039028707
    Total Energy =                       -551.6739303902870688
  Charge       = 1
  Multiplicity = 1
  Basis Set: AUG-CC-PVTZ
    Blend: AUG-CC-PVTZ
  Basis Set: (AUG-CC-PVTZ AUX)
    Blend: AUG-CC-PVTZ-JKFIT

    Orbital Energies (a.u.)
    -----------------------

    Doubly Occupied:

       1A    -20.692806     2A    -15.844795     3A    -11.489537
       4A    -11.489508     5A    -11.451727     6A    -11.419075
       7A    -11.419045     8A    -11.416266     9A    -11.367239
      10A    -11.366020    11A    -11.363873    12A    -11.346815
      13A    -11.340650    14A     -1.520085    15A     -1.514778
      16A     -1.317693    17A     -1.263427    18A     -1.247158
      19A     -1.151295    20A     -1.143453    21A     -1.070746
      22A     -1.058879    23A     -0.971763    24A     -0.969831
      25A     -0.945383    26A     -0.876209    27A     -0.859690
      28A     -0.850283    29A     -0.821673    30A     -0.806831
      31A     -0.790025    32A     -0.777509    33A     -0.749954
      34A     -0.728827    35A     -0.713483    36A     -0.711663
      37A     -0.698123    38A     -0.683103    39A     -0.647661
      40A     -0.614981    41A     -0.604147    42A     -0.577431
      43A     -0.544365    44A     -0.463035    45A     -0.434105

  @DF-RHF Final Energy:  -551.67392797545563

   => Energetics <=

    Nuclear Repulsion Energy =            712.1847992607415563
    One-Electron Energy =               -2147.4475658903475050
    Two-Electron Energy =                 883.5888386541503223
    DFT Exchange-Correlation Energy =       0.0000000000000000
    Empirical Dispersion Energy =           0.0000000000000000
    PCM Polarization Energy =               0.0000000000000000
    EFP Energy =                            0.0000000000000000
    Total Energy =                       -551.6739279754556264
  Basis Set: (AUG-CC-PVTZ AUX)
    Blend: AUG-CC-PVTZ-RI
    Molecular point group: c1
  Basis Set: AUG-CC-PVTZ
    Blend: AUG-CC-PVTZ
  Basis Set: (AUG-CC-PVTZ AUX)
    Blend: AUG-CC-PVTZ-JKFIT
  Basis Set: (AUG-CC-PVTZ AUX)
    Blend: AUG-CC-PVTZ-JKFIT
	 Reference Energy          =    -551.6739279754556264 [Eh]
	 Singles Energy            =      -0.0000000000000000 [Eh]
	 Same-Spin Energy          =      -0.5952663003221904 [Eh]
	 Opposite-Spin Energy      =      -1.8231921646110310 [Eh]
	 Correlation Energy        =      -2.4184584649332215 [Eh]
	 Total Energy              =    -554.0923864403888501 [Eh]

	 ================> DF-SCS-MP2 Energies <==================
	-----------------------------------------------------------
	 SCS Same-Spin Scale       =       0.3333333333333333 [-]
	 SCS Opposite-Spin Scale   =       1.2000000000000000 [-]
	 SCS Same-Spin Energy      =      -0.1984221001073968 [Eh]
	 SCS Opposite-Spin Energy  =      -2.1878305975332371 [Eh]
	 SCS Correlation Energy    =      -2.3862526976406340 [Eh]
	 SCS Total Energy          =    -554.0601806730962835 [Eh]
	-----------------------------------------------------------

  -Total Gradient:
     Atom            X                  Y                   Z
    ------   -----------------  -----------------  -----------------
       1        0.000061545338    -0.000008327684     0.000006518796
       2       -0.000000644066    -0.000009431718     0.000032926924
       3       -0.000020956048     0.000003227523     0.000005081830
       4        0.000019513701    -0.000016021911    -0.000038719163
       5        0.000008319906    -0.000012692048    -0.000044375990
       6        0.000032271889    -0.000008159743    -0.000010183324
       7        0.000001857835     0.000019246750     0.000007602321
       8       -0.000019895117    -0.000005806980    -0.000000510969
       9       -0.000040207730    -0.000025583332    -0.000074819487
      10       -0.000017526040     0.000022813381     0.000082593661
      11       -0.000019520584     0.000048579934     0.000029619565
      12       -0.000000466907     0.000003376044     0.000005473928
      13        0.000028662432    -0.000028876385     0.000000319910
      14       -0.000006695944     0.000007100872    -0.000007063275
      15        0.000008581966    -0.000002494385    -0.000004952781
      16        0.000003251717    -0.000000780874    -0.000011477081
      17       -0.000013164620     0.000006143194     0.000010003718
      18       -0.000003341891     0.000013173152     0.000005097196
      19       -0.000014737357    -0.000004794388     0.000005771249
      20       -0.000000233332     0.000000231391    -0.000002443175
      21        0.000000760394    -0.000001274944    -0.000000629905
      22        0.000007343537    -0.000004573985    -0.000004595226
      23       -0.000014719075     0.000004926135     0.000008761288

  **** Optimization is complete! (in 5 steps) ****
    Final optimized geometry and variables:
    Molecular point group: c1

    Geometry (in Angstrom), charge = 1, multiplicity = 1:

    C           -1.282047523677     0.723267495615    -0.552002760102
    C           -0.285191564238     0.108558462380     1.550986698040
    C           -2.349729524532     1.290858550262     0.118253992613
    C           -1.355457713237     0.677367266421     2.222370286614
    C            2.018111104517     0.281072134211    -0.867857504998
    C            0.862389225828    -1.811709213237    -0.938353136380
    C            3.071649448705    -0.295339180047    -1.541267414410
    C            1.930508988963    -2.361631583440    -1.610944837116
    C           -0.243187363420     0.128503688342     0.160850584279
    C            0.887504809525    -0.471901498932    -0.551858552221
    C           -2.390795040732     1.270206100834     1.508216673405
    N            2.991928499936    -1.589065332457    -1.887449485678
    O           -3.463629945620     1.842931692551     2.093025783564
    H           -1.258520592463     0.744027701228    -1.631625787060
    H            0.514397786928    -0.349569017041     2.114358228067
    H           -3.161092216472     1.754854933434    -0.420278385233
    H           -1.382923856315     0.658762864830     3.302376260216
    H            2.074756082976     1.320766611446    -0.587245570607
    H            0.005443742708    -2.426473653842    -0.713349912686
    H            3.972148780370     0.228374160724    -1.815620836308
    H            1.975459158510    -3.387226438939    -1.937409329352
    H            3.772215577835    -2.003280431550    -2.383034651790
    H           -3.397047285006     1.776175108940     3.051412550808

*** Psi4 exiting successfully. Buy a developer a beer!
