                               Psi4 1.1 release

  ==> Input File <==

--------------------------------------------------------------------------

molecule phepyr {
  symmetry C1
  0 1
  C      1.885   -1.036   -0.112
  C      0.807   -0.463   0.561
  C      2.921   -1.631   0.608
  C      0.764   -0.484   1.955
  C      2.878   -1.652   2.002
  C      2.354   -2.141   4.823
  C      1.113   -0.081   4.815
  C      2.285   -2.115   6.207
  C      1.099   -0.147   6.199
  C      1.800   -1.079   2.676
  C      1.755   -1.100   4.122
  N      1.670   -1.141   6.915
  H      1.917   -1.021   -1.198
  H      -0.001   -0.002   0.000
  H      3.760   -2.079   0.084
  H      -0.084   -0.033   2.466
  H      3.693   -2.120   2.550
  H      2.865   -2.954   4.317
  H      0.634   0.747   4.302
  H      2.738   -2.902   6.800
  H      0.611   0.623   6.787
  units Angstrom
}

dih_string = "4 10 11 6 150"
set optking fixed_dihedral = $dih_string

optimize('MP2/aug-cc-PVTZ')
--------------------------------------------------------------------------

    Molecular point group: c1
  Charge       = 0
  Multiplicity = 1
  Basis Set: AUG-CC-PVTZ
    Blend: AUG-CC-PVTZ
  Basis Set: (AUG-CC-PVTZ AUX)
    Blend: AUG-CC-PVTZ-JKFIT
  @DF-RHF Final Energy:  -476.39550080267043
    Total Energy =                       -476.3955008026704263
  Basis Set: (AUG-CC-PVTZ AUX)
    Blend: AUG-CC-PVTZ-RI
    Molecular point group: c1
  Basis Set: AUG-CC-PVTZ
    Blend: AUG-CC-PVTZ
  Basis Set: (AUG-CC-PVTZ AUX)
    Blend: AUG-CC-PVTZ-JKFIT
  Basis Set: (AUG-CC-PVTZ AUX)
    Blend: AUG-CC-PVTZ-JKFIT
	 Reference Energy          =    -476.3955008026704263 [Eh]
	 Singles Energy            =      -0.0000000000000001 [Eh]
	 Same-Spin Energy          =      -0.5353956003258626 [Eh]
	 Opposite-Spin Energy      =      -1.6436159186456631 [Eh]
	 Correlation Energy        =      -2.1790115189715258 [Eh]
	 Total Energy              =    -478.5745123216419756 [Eh]
	 SCS Total Energy          =    -478.5463051051538628 [Eh]
  @DF-RHF Final Energy:  -476.40091178177522
    Total Energy =                       -476.4009117817752212
  @DF-RHF Final Energy:  -476.40173310399354
    Total Energy =                       -476.4017331039935925
  @DF-RHF Final Energy:  -476.40172576587531
    Total Energy =                       -476.4017257658753124
  Charge       = 0
  Multiplicity = 1
  Basis Set: AUG-CC-PVTZ
    Blend: AUG-CC-PVTZ
  Basis Set: (AUG-CC-PVTZ AUX)
    Blend: AUG-CC-PVTZ-JKFIT

    Orbital Energies (a.u.)
    -----------------------

    Doubly Occupied:

       1A    -15.561775     2A    -11.272210     3A    -11.272193
       4A    -11.266175     5A    -11.253840     6A    -11.244846
       7A    -11.244770     8A    -11.244001     9A    -11.243141
      10A    -11.242471    11A    -11.237103    12A    -11.237044
      13A     -1.258967    14A     -1.176103    15A     -1.108481
      16A     -1.037526    17A     -1.026285    18A     -1.019258
      19A     -0.882181    20A     -0.868607    21A     -0.829320
      22A     -0.809527    23A     -0.735637    24A     -0.685733
      25A     -0.673838    26A     -0.662828    27A     -0.631918
      28A     -0.626708    29A     -0.604856    30A     -0.591693
      31A     -0.583870    32A     -0.548383    33A     -0.526798
      34A     -0.514457    35A     -0.511831    36A     -0.496413
      37A     -0.418367    38A     -0.406409    39A     -0.350128
      40A     -0.347830    41A     -0.323305

  @DF-RHF Final Energy:  -476.40170131873043

   => Energetics <=

    Nuclear Repulsion Energy =            606.2850973454540053
    One-Electron Energy =               -1846.2199467617206210
    Two-Electron Energy =                 763.5331480975361274
    DFT Exchange-Correlation Energy =       0.0000000000000000
    Empirical Dispersion Energy =           0.0000000000000000
    PCM Polarization Energy =               0.0000000000000000
    EFP Energy =                            0.0000000000000000
    Total Energy =                       -476.4017013187304883
  Basis Set: (AUG-CC-PVTZ AUX)
    Blend: AUG-CC-PVTZ-RI
    Molecular point group: c1
  Basis Set: AUG-CC-PVTZ
    Blend: AUG-CC-PVTZ
  Basis Set: (AUG-CC-PVTZ AUX)
    Blend: AUG-CC-PVTZ-JKFIT
  Basis Set: (AUG-CC-PVTZ AUX)
    Blend: AUG-CC-PVTZ-JKFIT
	 Reference Energy          =    -476.4017013187304315 [Eh]
	 Singles Energy            =      -0.0000000000000007 [Eh]
	 Same-Spin Energy          =      -0.5344097558086289 [Eh]
	 Opposite-Spin Energy      =      -1.6412501477498103 [Eh]
	 Correlation Energy        =      -2.1756599035584401 [Eh]
	 Total Energy              =    -478.5773612222888573 [Eh]

	 ================> DF-SCS-MP2 Energies <==================
	-----------------------------------------------------------
	 SCS Same-Spin Scale       =       0.3333333333333333 [-]
	 SCS Opposite-Spin Scale   =       1.2000000000000000 [-]
	 SCS Same-Spin Energy      =      -0.1781365852695430 [Eh]
	 SCS Opposite-Spin Energy  =      -1.9695001772997722 [Eh]
	 SCS Correlation Energy    =      -2.1476367625693160 [Eh]
	 SCS Total Energy          =    -478.5493380812997657 [Eh]
	-----------------------------------------------------------

  -Total Gradient:
     Atom            X                  Y                   Z
    ------   -----------------  -----------------  -----------------
       1        0.000003121465     0.000013258661    -0.000022889729
       2       -0.000000613021    -0.000021300265    -0.000038549514
       3        0.000013011334     0.000018685242    -0.000034508374
       4        0.000519688632     0.000975200971     0.000095333116
       5        0.000015922804     0.000010421856     0.000068683500
       6        0.000910436003     0.000518961970    -0.000022251207
       7        0.000077453865     0.000049561210    -0.000057001260
       8        0.000182038939     0.000160780785     0.000064016705
       9       -0.000199386692    -0.000162562421     0.000054361903
      10       -0.000302098963    -0.001197719069     0.000011662388
      11       -0.001218315646    -0.000367772677    -0.000074640812
      12        0.000010604448     0.000005696034     0.000042754531
      13       -0.000004498892    -0.000004976616    -0.000015432462
      14       -0.000016928371     0.000029894265    -0.000005959217
      15        0.000007231998    -0.000024701272     0.000002829820
      16       -0.000005721181     0.000002295625    -0.000010002560
      17        0.000004732642    -0.000002428321    -0.000011182311
      18       -0.000004611337    -0.000016548977    -0.000016140381
      19        0.000003238329     0.000022525145    -0.000015129049
      20       -0.000072487620    -0.000024304933    -0.000004857177
      21        0.000077181258     0.000015032792    -0.000011097911

  **** Optimization is complete! (in 5 steps) ****
    Final optimized geometry and variables:
    Molecular point group: c1

    Geometry (in Angstrom), charge = 0, multiplicity = 1:

    C            0.115335884092     0.062504026843    -3.551585465005
    C           -0.964590006840     0.619542429806    -2.879927737576
    C            1.145187554357    -0.523796238437    -2.828219476373
    C           -1.014297183238     0.587642975904    -1.494884799704
    C            1.093552918262    -0.554081240691    -1.443163031575
    C            0.550606500988    -1.047666600483     1.444044879042
    C           -0.646062985642     0.995905573646     1.432787386857
    C            0.495221899993    -1.016108808047     2.828121277823
    C           -0.654357872453     0.942113670194     2.817311032688
    C            0.011724269051    -0.002483933915    -0.756534688385
    C           -0.034234027524    -0.022008846926     0.706000373786
    N           -0.096028825724    -0.042759752929     3.524736004242
    H            0.154736695577     0.086474407131    -4.629778247561
    H           -1.772263253291     1.071519892063    -3.434986626608
    H            1.993613893846    -0.948737384271    -3.342289295006
    H           -1.871873568020     0.996635554252    -0.982212129249
    H            1.913946874163    -0.983156574038    -0.887943922289
    H            1.022174335901    -1.882198335218     0.947935483178
    H           -1.091006817804     1.840380277175     0.929065765806
    H            0.940383587914    -1.814453318876     3.405470003653
    H           -1.123358130022     1.732770851803     3.386264296511

*** Psi4 exiting successfully. Buy a developer a beer!
