                              Psi4 1.0.0 Driver

  ==> Input File <==

--------------------------------------------------------------------------

memory 1000 mb

molecule butane {
  symmetry C1
  0 1
  H      1.604   0.760   -8.260
  H      1.745   2.388   -8.880
  H      2.043   1.024   -9.930
  C      2.142   1.395   -8.932
  H      4.169   2.051   -9.210
  H      3.731   1.788   -7.539
  C      3.631   1.416   -8.537
  H      4.863   -0.175   -7.786
  H      3.402   -0.720   -8.574
  C      4.203   -0.012   -8.612
  H      5.376   -1.178   -9.982
  H      5.780   0.521   -9.970
  H      4.319   -0.023   -10.757
  C      4.978   -0.186   -9.930
  units Angstrom
}

dih_string = "4 7 10 14 100"
set optking fixed_dihedral = $dih_string

optimize('MP2/6-31G(d)')
--------------------------------------------------------------------------

    Molecular point group: c1
  Charge       = 0
  Multiplicity = 1
  Basis Set: 6-31G(D)
  Basis Set:
  @DF-RHF Final Energy:  -157.28924075780145
    Total Energy =                       -157.2892407578015082
  Basis Set:
    Molecular point group: c1
  Basis Set: 6-31G(D)
  Basis Set:
  Basis Set:
	 Reference Energy          =    -157.2892407578014513 [Eh]
	 Singles Energy            =      -0.0000000000000000 [Eh]
	 Same-Spin Energy          =      -0.1244853290180870 [Eh]
	 Opposite-Spin Energy      =      -0.4204233997677169 [Eh]
	 Correlation Energy        =      -0.5449087287858039 [Eh]
	 Total Energy              =    -157.8341494865872505 [Eh]
	 SCS Total Energy          =    -157.8352439471954085 [Eh]
  Basis Set: 6-31G(D)
  Basis Set:
  @DF-RHF Final Energy:  -157.29216158181745
    Total Energy =                       -157.2921615818174246
  Basis Set:
  Basis Set: 6-31G(D)
  Basis Set:
  @DF-RHF Final Energy:  -157.29302120675322
    Total Energy =                       -157.2930212067532239
  @DF-RHF Final Energy:  -157.29332415866477
    Total Energy =                       -157.2933241586647455
  @DF-RHF Final Energy:  -157.29338715063801
    Total Energy =                       -157.2933871506378125
  @DF-RHF Final Energy:  -157.29340054711753
    Total Energy =                       -157.2934005471174714
  @DF-RHF Final Energy:  -157.29338638274533
    Total Energy =                       -157.2933863827452683
	 Singles Energy            =      -0.0000000000000000 [Eh]
	 Same-Spin Energy          =      -0.1243652642110654 [Eh]
	 Opposite-Spin Energy      =      -0.4224234348519506 [Eh]
	 Correlation Energy        =      -0.5467886990630160 [Eh]
	 Total Energy              =    -157.8401750818083542 [Eh]
	 SCS Total Energy          =    -157.8417495926380241 [Eh]
  Charge       = 0
  Multiplicity = 1
  Basis Set: 6-31G(D)
  Basis Set:

    Orbital Energies (a.u.)
    -----------------------

    Doubly Occupied:

       1A    -11.215544     2A    -11.214974     3A    -11.210501
       4A    -11.210496     5A     -1.068697     6A     -0.977599
       7A     -0.863454     8A     -0.782830     9A     -0.624670
      10A     -0.609649    11A     -0.577258    12A     -0.542422
      13A     -0.515852    14A     -0.506293    15A     -0.467136
      16A     -0.454524    17A     -0.452708

  @DF-RHF Final Energy:  -157.29339203101364

   => Energetics <=

    Nuclear Repulsion Energy =            131.6563536446809053
    One-Electron Energy =                -471.3102796156929344
    Two-Electron Energy =                 182.3605339399982483
    DFT Exchange-Correlation Energy =       0.0000000000000000
    Empirical Dispersion Energy =           0.0000000000000000
    PCM Polarization Energy =               0.0000000000000000
    EFP Energy =                            0.0000000000000000
    Total Energy =                       -157.2933920310137808
  Basis Set:
    Molecular point group: c1
  Basis Set: 6-31G(D)
  Basis Set:
  Basis Set:
	 Reference Energy          =    -157.2933920310136386 [Eh]
	 Singles Energy            =      -0.0000000000000000 [Eh]
	 Same-Spin Energy          =      -0.1243627723170145 [Eh]
	 Opposite-Spin Energy      =      -0.4224205085243284 [Eh]
	 Correlation Energy        =      -0.5467832808413429 [Eh]
	 Total Energy              =    -157.8401753118549777 [Eh]

	 ================> DF-SCS-MP2 Energies <==================
	-----------------------------------------------------------
	 SCS Same-Spin Scale       =       0.3333333333333333 [-]
	 SCS Opposite-Spin Scale   =       1.2000000000000000 [-]
	 SCS Same-Spin Energy      =      -0.0414542574390048 [Eh]
	 SCS Opposite-Spin Energy  =      -0.5069046102291941 [Eh]
	 SCS Correlation Energy    =      -0.5483588676681989 [Eh]
	 SCS Total Energy          =    -157.8417508986818234 [Eh]
	-----------------------------------------------------------

  -Total Gradient:
     Atom            X                  Y                   Z
    ------   -----------------  -----------------  -----------------
       1        0.000004865339     0.000003010999     0.000004739912
       2       -0.000002164106     0.000005112232    -0.000000798228
       3       -0.000004597690    -0.000000516199    -0.000003007006
       4       -0.000647822756    -0.000512609165     0.002629184354
       5       -0.000016692140    -0.000006014079     0.000002079832
       6       -0.000002920439     0.000001089844    -0.000007693906
       7        0.001756330174     0.001109307701    -0.003147483816
       8       -0.000003069409    -0.000002826771    -0.000007267805
       9        0.000012911030     0.000004978616    -0.000011503363
      10       -0.003364074141    -0.001553386746    -0.000703002399
      11        0.000001210829    -0.000004814066    -0.000000909106
      12       -0.000000117772    -0.000001853073     0.000007306244
      13        0.000001116707    -0.000000435664    -0.000005137969
      14        0.002265024373     0.000958956370     0.001243493254

  **** Optimization is complete! (in 8 steps) ****
    Final optimized geometry and variables:
    Molecular point group: c1

    Geometry (in Angstrom), charge = 0, multiplicity = 1:

    H           -2.187977996116     0.086880283880     0.802204346538
    H           -2.063448257430     1.730609945009     0.160088621178
    H           -1.775394470974     0.343454992023    -0.896992014296
    C           -1.627220012748     0.728529856928     0.116834464839
    H            0.390863147135     1.455646446891    -0.148120798094
    H           -0.050063438077     1.118459787536     1.512546551976
    C           -0.147040180473     0.743080415537     0.487717673787
    H            1.189519506625    -0.803804077903     1.216634583362
    H           -0.262267850661    -1.420137562436     0.456125280038
    C            0.507031143127    -0.643671107758     0.374520861481
    H            1.710569600514    -1.828054080881    -1.005298319212
    H            2.116766988563    -0.106540644935    -0.972759262302
    H            0.651380427456    -0.653849148808    -1.795205858459
    C            1.290749363554    -0.821444231281    -0.922737523458

*** Psi4 exiting successfully. Buy a developer a beer!
