                              Psi4 1.0.0 Driver

  ==> Input File <==

--------------------------------------------------------------------------

memory 1000 mb

molecule butane {
  symmetry C1
  0 1
  H      1.604   0.760   -8.260
  H      1.745   2.388   -8.880
  H      2.043   1.024   -9.930
  C      2.142   1.395   -8.932
  H      4.169   2.051   -9.210
  H      3.731   1.788   -7.539
  C      3.631   1.416   -8.537
  H      3.401   -0.719   -8.574
  H      4.742   -0.133   -9.528
  C      4.203   -0.012   -8.612
  H      5.550   -1.240   -7.476
  H      4.615   -0.128   -6.507
  H      5.955   0.459   -7.461
  C      5.153   -0.248   -7.424
  units Angstrom
}

dih_string = "4 7 10 14 220"
set optking fixed_dihedral = $dih_string

optimize('MP2/6-31G(d)')
--------------------------------------------------------------------------

    Molecular point group: c1
  Charge       = 0
  Multiplicity = 1
  Basis Set: 6-31G(D)
  Basis Set:
  @DF-RHF Final Energy:  -157.28942615332028
    Total Energy =                       -157.2894261533201643
  Basis Set:
    Molecular point group: c1
  Basis Set: 6-31G(D)
  Basis Set:
  Basis Set:
	 Reference Energy          =    -157.2894261533202780 [Eh]
	 Singles Energy            =      -0.0000000000000000 [Eh]
	 Same-Spin Energy          =      -0.1244067811375338 [Eh]
	 Opposite-Spin Energy      =      -0.4203504640681135 [Eh]
	 Correlation Energy        =      -0.5447572452056474 [Eh]
	 Total Energy              =    -157.8341833985259370 [Eh]
	 SCS Total Energy          =    -157.8353156372478452 [Eh]
  Basis Set: 6-31G(D)
  Basis Set:
  @DF-RHF Final Energy:  -157.29240469165066
    Total Energy =                       -157.2924046916506882
  Basis Set:
  Basis Set: 6-31G(D)
  Basis Set:
  @DF-RHF Final Energy:  -157.29327384677433
    Total Energy =                       -157.2932738467743263
  @DF-RHF Final Energy:  -157.29359439115794
    Total Energy =                       -157.2935943911577965
  @DF-RHF Final Energy:  -157.29367282065220
    Total Energy =                       -157.2936728206523185
  @DF-RHF Final Energy:  -157.29369584944109
    Total Energy =                       -157.2936958494410362
  @DF-RHF Final Energy:  -157.29368567298042
    Total Energy =                       -157.2936856729803310
  @DF-RHF Final Energy:  -157.29374702279327
    Total Energy =                       -157.2937470227930419
  @DF-RHF Final Energy:  -157.29364143830375
    Total Energy =                       -157.2936414383036663
  @DF-RHF Final Energy:  -157.29366462150770
    Total Energy =                       -157.2936646215077872
  @DF-RHF Final Energy:  -157.29367800138201
    Total Energy =                       -157.2936780013821760
	 Singles Energy            =      -0.0000000000000000 [Eh]
	 Same-Spin Energy          =      -0.1243278260195637 [Eh]
	 Opposite-Spin Energy      =      -0.4223544967375696 [Eh]
	 Correlation Energy        =      -0.5466823227571334 [Eh]
	 Total Energy              =    -157.8403603241391409 [Eh]
	 SCS Total Energy          =    -157.8419460061402901 [Eh]
  Charge       = 0
  Multiplicity = 1
  Basis Set: 6-31G(D)
  Basis Set:

    Orbital Energies (a.u.)
    -----------------------

    Doubly Occupied:

       1A    -11.215561     2A    -11.214990     3A    -11.210440
       4A    -11.210434     5A     -1.068429     6A     -0.979520
       7A     -0.859324     8A     -0.786599     9A     -0.633429
      10A     -0.587094    11A     -0.581714    12A     -0.557894
      13A     -0.510890    14A     -0.501789    15A     -0.464891
      16A     -0.457028    17A     -0.454773

  @DF-RHF Final Energy:  -157.29367575462766

   => Energetics <=

    Nuclear Repulsion Energy =            130.8285468208549105
    One-Electron Energy =                -469.6548441618816128
    Two-Electron Energy =                 181.5326215863990456
    DFT Exchange-Correlation Energy =       0.0000000000000000
    Empirical Dispersion Energy =           0.0000000000000000
    PCM Polarization Energy =               0.0000000000000000
    EFP Energy =                            0.0000000000000000
    Total Energy =                       -157.2936757546276567
  Basis Set:
    Molecular point group: c1
  Basis Set: 6-31G(D)
  Basis Set:
  Basis Set:
	 Reference Energy          =    -157.2936757546276567 [Eh]
	 Singles Energy            =      -0.0000000000000000 [Eh]
	 Same-Spin Energy          =      -0.1243290129889202 [Eh]
	 Opposite-Spin Energy      =      -0.4223540792856484 [Eh]
	 Correlation Energy        =      -0.5466830922745686 [Eh]
	 Total Energy              =    -157.8403588469022338 [Eh]

	 ================> DF-SCS-MP2 Energies <==================
	-----------------------------------------------------------
	 SCS Same-Spin Scale       =       0.3333333333333333 [-]
	 SCS Opposite-Spin Scale   =       1.2000000000000000 [-]
	 SCS Same-Spin Energy      =      -0.0414430043296400 [Eh]
	 SCS Opposite-Spin Energy  =      -0.5068248951427781 [Eh]
	 SCS Correlation Energy    =      -0.5482678994724182 [Eh]
	 SCS Total Energy          =    -157.8419436541000778 [Eh]
	-----------------------------------------------------------

  -Total Gradient:
     Atom            X                  Y                   Z
    ------   -----------------  -----------------  -----------------
       1        0.000056087025    -0.000006634117    -0.000013821275
       2        0.000002355873    -0.000022625433     0.000009828025
       3       -0.000021934960     0.000027925178     0.000006908573
       4       -0.000811730665    -0.000381570160     0.002700377946
       5       -0.000109877848     0.000049977413    -0.000004627014
       6        0.000113914039    -0.000044333369     0.000045125707
       7        0.000155632442     0.000073076360    -0.003263295148
       8       -0.000098750127     0.000051095567    -0.000067540444
       9        0.000064985374    -0.000071572479     0.000075079787
      10        0.002778510499     0.001340514297    -0.001061859205
      11       -0.000015266750     0.000017184364     0.000011216075
      12       -0.000012598348     0.000026968089    -0.000048792455
      13        0.000012180581    -0.000033010224     0.000010740055
      14       -0.002113507136    -0.001026995488     0.001600659372

  **** Optimization is complete! (in 12 steps) ****
    Final optimized geometry and variables:
    Molecular point group: c1

    Geometry (in Angstrom), charge = 0, multiplicity = 1:

    H           -2.234256787935     0.144637815470     0.098688412694
    H           -2.071919138407     1.777941820839    -0.562609725479
    H           -1.783736621313     0.371453756446    -1.594594212267
    C           -1.650533569835     0.768893078399    -0.583749598705
    H            0.388796238802     1.448384071873    -0.822816575069
    H           -0.097342137680     1.169817494209     0.835067269933
    C           -0.179231737247     0.765668402924    -0.181520029646
    H           -0.352257825394    -1.386104317156    -0.172970740399
    H            0.962513615994    -0.798310170280    -1.167153581418
    C            0.447699390915    -0.636510882912    -0.213842147255
    H            1.843685814312    -1.887740812907     0.898747705100
    H            0.875482513378    -0.798360332493     1.902322578522
    H            2.220899485753    -0.161116955821     0.950808884987
    C            1.402905624966    -0.888022938403     0.948415943297

*** Psi4 exiting successfully. Buy a developer a beer!
