                               Psi4 1.1 release

  ==> Input File <==

--------------------------------------------------------------------------

memory 1000 mb

molecule butane {
  symmetry C1
  0 1
  H      1.604   0.760   -8.260
  H      1.745   2.388   -8.880
  H      2.043   1.024   -9.930
  C      2.142   1.395   -8.932
  H      4.169   2.051   -9.210
  H      3.731   1.788   -7.539
  C      3.631   1.416   -8.537
  H      3.665   -0.647   -7.940
  H      4.104   -0.384   -9.610
  C      4.203   -0.012   -8.612
  H      5.833   0.680   -7.397
  H      6.277   0.336   -9.051
  H      5.999   -0.975   -7.931
  C      5.691   0.009   -8.218
  units Angstrom
}

dih_string = "7 10 14 13 160"
set optking fixed_dihedral = $dih_string

optimize('MP2/aug-cc-pvtz')
--------------------------------------------------------------------------

    Molecular point group: c1
  Charge       = 0
  Multiplicity = 1
  Basis Set: AUG-CC-PVTZ
    Blend: AUG-CC-PVTZ
  Basis Set: (AUG-CC-PVTZ AUX)
    Blend: AUG-CC-PVTZ-JKFIT
  @DF-RHF Final Energy:  -157.35142094527598
    Total Energy =                       -157.3514209452759758
  Basis Set: (AUG-CC-PVTZ AUX)
    Blend: AUG-CC-PVTZ-RI
    Molecular point group: c1
  Basis Set: AUG-CC-PVTZ
    Blend: AUG-CC-PVTZ
  Basis Set: (AUG-CC-PVTZ AUX)
    Blend: AUG-CC-PVTZ-JKFIT
  Basis Set: (AUG-CC-PVTZ AUX)
    Blend: AUG-CC-PVTZ-JKFIT
	 Reference Energy          =    -157.3514209452759758 [Eh]
	 Singles Energy            =      -0.0000000000000000 [Eh]
	 Same-Spin Energy          =      -0.1654005195232184 [Eh]
	 Opposite-Spin Energy      =      -0.6388838097436044 [Eh]
	 Correlation Energy        =      -0.8042843292668227 [Eh]
	 Total Energy              =    -158.1557052745428109 [Eh]
	 SCS Total Energy          =    -158.1732150234760468 [Eh]
  @DF-RHF Final Energy:  -157.35410605663381
    Total Energy =                       -157.3541060566338103
  @DF-RHF Final Energy:  -157.35493616383309
    Total Energy =                       -157.3549361638330879
  @DF-RHF Final Energy:  -157.35522424103556
    Total Energy =                       -157.3552242410355575
  @DF-RHF Final Energy:  -157.35524473495482
    Total Energy =                       -157.3552447349548231
  Charge       = 0
  Multiplicity = 1
  Basis Set: AUG-CC-PVTZ
    Blend: AUG-CC-PVTZ
  Basis Set: (AUG-CC-PVTZ AUX)
    Blend: AUG-CC-PVTZ-JKFIT

    Orbital Energies (a.u.)
    -----------------------

    Doubly Occupied:

       1A    -11.211452     2A    -11.210796     3A    -11.206000
       4A    -11.205911     5A     -1.074111     6A     -0.981861
       7A     -0.861161     8A     -0.788190     9A     -0.640781
      10A     -0.585063    11A     -0.577235    12A     -0.568872
      13A     -0.513398    14A     -0.495213    15A     -0.470116
      16A     -0.460650    17A     -0.456136

  @DF-RHF Final Energy:  -157.35524924811594

   => Energetics <=

    Nuclear Repulsion Energy =            131.5038144395390418
    One-Electron Energy =                -471.1042334947770200
    Two-Electron Energy =                 182.2451698071220392
    DFT Exchange-Correlation Energy =       0.0000000000000000
    Empirical Dispersion Energy =           0.0000000000000000
    PCM Polarization Energy =               0.0000000000000000
    EFP Energy =                            0.0000000000000000
    Total Energy =                       -157.3552492481159391
  Basis Set: (AUG-CC-PVTZ AUX)
    Blend: AUG-CC-PVTZ-RI
    Molecular point group: c1
  Basis Set: AUG-CC-PVTZ
    Blend: AUG-CC-PVTZ
  Basis Set: (AUG-CC-PVTZ AUX)
    Blend: AUG-CC-PVTZ-JKFIT
  Basis Set: (AUG-CC-PVTZ AUX)
    Blend: AUG-CC-PVTZ-JKFIT
	 Reference Energy          =    -157.3552492481159391 [Eh]
	 Singles Energy            =      -0.0000000000000000 [Eh]
	 Same-Spin Energy          =      -0.1654641899422961 [Eh]
	 Opposite-Spin Energy      =      -0.6393291954569803 [Eh]
	 Correlation Energy        =      -0.8047933853992764 [Eh]
	 Total Energy              =    -158.1600426335152179 [Eh]

	 ================> DF-SCS-MP2 Energies <==================
	-----------------------------------------------------------
	 SCS Same-Spin Scale       =       0.3333333333333333 [-]
	 SCS Opposite-Spin Scale   =       1.2000000000000000 [-]
	 SCS Same-Spin Energy      =      -0.0551547299807654 [Eh]
	 SCS Opposite-Spin Energy  =      -0.7671950345483763 [Eh]
	 SCS Correlation Energy    =      -0.8223497645291417 [Eh]
	 SCS Total Energy          =    -158.1775990126450893 [Eh]
	-----------------------------------------------------------

  -Total Gradient:
     Atom            X                  Y                   Z
    ------   -----------------  -----------------  -----------------
       1       -0.000007533766     0.000005339441    -0.000014564239
       2       -0.000008284893    -0.000005970219    -0.000002114121
       3        0.000005948703     0.000002314037     0.000005855784
       4        0.000005589241    -0.000002542583     0.000040265479
       5        0.000010556459    -0.000002096839     0.000010280613
       6       -0.000003961606     0.000005868498    -0.000021083833
       7       -0.000480356205    -0.000273196022     0.001884379042
       8        0.000014433307     0.000001850589    -0.000025148864
       9       -0.000006032648     0.000005161288     0.000000074459
      10        0.000496524592     0.000519649015    -0.001931652738
      11        0.000009157509    -0.000014145309    -0.000021278224
      12       -0.000006628697    -0.000008343520    -0.000003304101
      13       -0.000633687294     0.000549440784     0.002619115174
      14        0.000604275298    -0.000783329159    -0.002540824432

  **** Optimization is complete! (in 6 steps) ****
    Final optimized geometry and variables:
    Molecular point group: c1

    Geometry (in Angstrom), charge = 0, multiplicity = 1:

    H           -2.352350197469     0.056390941993     0.285306399979
    H           -2.193002390529     1.707492348612    -0.302971805741
    H           -1.892101254628     0.352588862666    -1.385168040154
    C           -1.769455921915     0.707711923392    -0.363626875592
    H            0.261228252179     1.361066724144    -0.612319047134
    H           -0.197919700035     1.081492733347     1.051241302859
    C           -0.306812974932     0.693123888408     0.037743878121
    H           -0.249163711622    -1.338858868838     0.670449891875
    H            0.153970715868    -1.117158381101    -1.014314854170
    C            0.300080420191    -0.695824552218    -0.018989068630
    H            1.959613707357    -0.047240055840     1.190733309974
    H            2.389818598256    -0.354110949890    -0.484046240616
    H            2.115143569174    -1.697091297951     0.632141926984
    C            1.776588449779    -0.705395245719     0.342264079988

*** Psi4 exiting successfully. Buy a developer a beer!
