                               Psi4 1.1 release

  ==> Input File <==

--------------------------------------------------------------------------

molecule phepyr {
  symmetry C1
  0 1
  C      1.885   -1.036   -0.112
  C      0.807   -0.463   0.561
  C      2.921   -1.631   0.608
  C      0.764   -0.484   1.955
  C      2.878   -1.652   2.002
  C      2.900   -1.400   4.851
  C      0.567   -0.821   4.787
  C      2.805   -1.407   6.234
  C      0.576   -0.853   6.172
  C      1.800   -1.079   2.676
  C      1.755   -1.101   4.122
  N      1.669   -1.140   6.915
  H      1.917   -1.021   -1.198
  H      -0.001   -0.002   0.000
  H      3.760   -2.079   0.084
  H      -0.084   -0.033   2.466
  H      3.693   -2.120   2.550
  H      3.846   -1.623   4.368
  H      -0.347   -0.583   4.251
  H      3.670   -1.632   6.848
  H      -0.325   -0.643   6.739
  units Angstrom
}

dih_string = "4 10 11 6 195"
set optking fixed_dihedral = $dih_string

optimize('MP2/aug-cc-PVTZ')
--------------------------------------------------------------------------

    Molecular point group: c1
  Charge       = 0
  Multiplicity = 1
  Basis Set: AUG-CC-PVTZ
    Blend: AUG-CC-PVTZ
  Basis Set: (AUG-CC-PVTZ AUX)
    Blend: AUG-CC-PVTZ-JKFIT
  @DF-RHF Final Energy:  -476.39157517030867
    Total Energy =                       -476.3915751703086698
  Basis Set: (AUG-CC-PVTZ AUX)
    Blend: AUG-CC-PVTZ-RI
    Molecular point group: c1
  Basis Set: AUG-CC-PVTZ
    Blend: AUG-CC-PVTZ
  Basis Set: (AUG-CC-PVTZ AUX)
    Blend: AUG-CC-PVTZ-JKFIT
  Basis Set: (AUG-CC-PVTZ AUX)
    Blend: AUG-CC-PVTZ-JKFIT
	 Reference Energy          =    -476.3915751703086698 [Eh]
	 Singles Energy            =      -0.0000000000000000 [Eh]
	 Same-Spin Energy          =      -0.5358429902640501 [Eh]
	 Opposite-Spin Energy      =      -1.6446933997110558 [Eh]
	 Correlation Energy        =      -2.1805363899751060 [Eh]
	 Total Energy              =    -478.5721115602837585 [Eh]
	 SCS Total Energy          =    -478.5438215800499506 [Eh]
  @DF-RHF Final Energy:  -476.39820118030480
    Total Energy =                       -476.3982011803047953
  @DF-RHF Final Energy:  -476.39979273655263
    Total Energy =                       -476.3997927365526266
  @DF-RHF Final Energy:  -476.39984128351966
    Total Energy =                       -476.3998412835196632
  @DF-RHF Final Energy:  -476.39985623640308
    Total Energy =                       -476.3998562364031386
  @DF-RHF Final Energy:  -476.39985073512571
    Total Energy =                       -476.3998507351257103
  Charge       = 0
  Multiplicity = 1
  Basis Set: AUG-CC-PVTZ
    Blend: AUG-CC-PVTZ
  Basis Set: (AUG-CC-PVTZ AUX)
    Blend: AUG-CC-PVTZ-JKFIT

    Orbital Energies (a.u.)
    -----------------------

    Doubly Occupied:

       1A    -15.561445     2A    -11.271938     3A    -11.271922
       4A    -11.268099     5A    -11.255532     6A    -11.245343
       7A    -11.245296     8A    -11.244574     9A    -11.243330
      10A    -11.242797    11A    -11.237080    12A    -11.237023
      13A     -1.259001    14A     -1.176250    15A     -1.108540
      16A     -1.038162    17A     -1.026147    18A     -1.019844
      19A     -0.883147    20A     -0.870070    21A     -0.827134
      22A     -0.810748    23A     -0.737669    24A     -0.685701
      25A     -0.674503    26A     -0.665313    27A     -0.630612
      28A     -0.623241    29A     -0.607738    30A     -0.588216
      31A     -0.584541    32A     -0.551673    33A     -0.528374
      34A     -0.515878    35A     -0.512777    36A     -0.493314
      37A     -0.418576    38A     -0.411232    39A     -0.352109
      40A     -0.346118    41A     -0.320316

  @DF-RHF Final Energy:  -476.39984981864274

   => Energetics <=

    Nuclear Repulsion Energy =            605.9459290159462626
    One-Electron Energy =               -1845.5089139111662462
    Two-Electron Energy =                 763.1631350765770776
    DFT Exchange-Correlation Energy =       0.0000000000000000
    Empirical Dispersion Energy =           0.0000000000000000
    PCM Polarization Energy =               0.0000000000000000
    EFP Energy =                            0.0000000000000000
    Total Energy =                       -476.3998498186427923
  Basis Set: (AUG-CC-PVTZ AUX)
    Blend: AUG-CC-PVTZ-RI
    Molecular point group: c1
  Basis Set: AUG-CC-PVTZ
    Blend: AUG-CC-PVTZ
  Basis Set: (AUG-CC-PVTZ AUX)
    Blend: AUG-CC-PVTZ-JKFIT
  Basis Set: (AUG-CC-PVTZ AUX)
    Blend: AUG-CC-PVTZ-JKFIT
	 Reference Energy          =    -476.3998498186427355 [Eh]
	 Singles Energy            =      -0.0000000000000002 [Eh]
	 Same-Spin Energy          =      -0.5345361545919265 [Eh]
	 Opposite-Spin Energy      =      -1.6417577146164801 [Eh]
	 Correlation Energy        =      -2.1762938692084068 [Eh]
	 Total Energy              =    -478.5761436878511290 [Eh]

	 ================> DF-SCS-MP2 Energies <==================
	-----------------------------------------------------------
	 SCS Same-Spin Scale       =       0.3333333333333333 [-]
	 SCS Opposite-Spin Scale   =       1.2000000000000000 [-]
	 SCS Same-Spin Energy      =      -0.1781787181973088 [Eh]
	 SCS Opposite-Spin Energy  =      -1.9701092575397761 [Eh]
	 SCS Correlation Energy    =      -2.1482879757370847 [Eh]
	 SCS Total Energy          =    -478.5481377943798407 [Eh]
	-----------------------------------------------------------

  -Total Gradient:
     Atom            X                  Y                   Z
    ------   -----------------  -----------------  -----------------
       1       -0.000010061187    -0.000016431116    -0.000025886709
       2       -0.000002693137     0.000016656095    -0.000007850533
       3        0.000020029859     0.000014236414    -0.000002219017
       4       -0.001221008256    -0.002224164634    -0.000065457761
       5       -0.000009706369    -0.000012154673    -0.000005259418
       6       -0.000613237073    -0.002469366131    -0.000043766682
       7        0.000017505381    -0.000014271582     0.000007103566
       8       -0.000009786881    -0.000034934820     0.000035997835
       9        0.000005215873     0.000032344441     0.000038760084
      10        0.001527167336     0.002059962593     0.000116725219
      11        0.000300090049     0.002650459770    -0.000020708017
      12       -0.000002520239    -0.000002171948    -0.000005970926
      13       -0.000000954974    -0.000002253997    -0.000001415034
      14       -0.000002847984     0.000008060419     0.000001497936
      15        0.000007243217    -0.000004416684     0.000001446155
      16       -0.000001600917     0.000004864967     0.000000718285
      17       -0.000005202259    -0.000011750051    -0.000005254255
      18        0.000013817786     0.000005445067     0.000003025940
      19       -0.000015443292    -0.000006382052     0.000003052114
      20        0.000007922743     0.000014870682    -0.000010595022
      21       -0.000003929682    -0.000008602759    -0.000013943771

  **** Optimization is complete! (in 7 steps) ****
    Final optimized geometry and variables:
    Molecular point group: c1

    Geometry (in Angstrom), charge = 0, multiplicity = 1:

    C            0.096150557899     0.021685340800    -3.562970749756
    C           -0.957520938345     0.622980308849    -2.888821302205
    C            1.116775237764    -0.575390372790    -2.836344496462
    C           -0.985808988598     0.630604485871    -1.503178542987
    C            1.084786791827    -0.566356668973    -1.450742311654
    C            1.114109604865    -0.263129518082     1.481628070625
    C           -1.191288993547     0.249521460408     1.412661811362
    C            1.016207264584    -0.296820919323     2.863016210659
    C           -1.195525635240     0.195206499972     2.796913835670
    C            0.037551898275     0.042998620774    -0.757227322587
    C           -0.009466062952     0.024820225938     0.709145290489
    N           -0.115529643061    -0.072365773977     3.534058050194
    H            0.119844633155     0.015484876840    -4.641846072223
    H           -1.755770061570     1.093711186653    -3.441929765775
    H            1.934737761551    -1.058451466580    -3.348541083262
    H           -1.801074136706     1.127139435836    -1.001097355803
    H            1.872886007048    -1.063556149394    -0.907869481761
    H            2.075657866599    -0.434030120222     1.024276353846
    H           -2.118265907823     0.443491506791     0.897076123280
    H            1.891662003717    -0.512406722092     3.459772051220
    H           -2.114380817964     0.368683165683     3.339672356530

*** Psi4 exiting successfully. Buy a developer a beer!
