                              Psi4 1.0.0 Driver

  ==> Input File <==

--------------------------------------------------------------------------

memory 1000 mb

molecule butane {
  symmetry C1
  0 1
  H      1.604   0.760   -8.260
  H      1.745   2.388   -8.880
  H      2.043   1.024   -9.930
  C      2.142   1.395   -8.932
  H      4.169   2.051   -9.210
  H      3.731   1.788   -7.539
  C      3.631   1.416   -8.537
  H      3.434   -0.688   -8.921
  H      5.006   -0.038   -9.318
  C      4.203   -0.012   -8.612
  H      5.123   -1.421   -7.278
  H      3.924   -0.404   -6.519
  H      5.496   0.246   -6.916
  C      4.726   -0.430   -7.226
  units Angstrom
}

dih_string = "4 7 10 14 240"
set optking fixed_dihedral = $dih_string

optimize('MP2/6-31G(d)')
--------------------------------------------------------------------------

    Molecular point group: c1
  Charge       = 0
  Multiplicity = 1
  Basis Set: 6-31G(D)
  Basis Set:
  @DF-RHF Final Energy:  -157.28783572283746
    Total Energy =                       -157.2878357228374853
  Basis Set:
    Molecular point group: c1
  Basis Set: 6-31G(D)
  Basis Set:
  Basis Set:
	 Reference Energy          =    -157.2878357228374568 [Eh]
	 Singles Energy            =      -0.0000000000000000 [Eh]
	 Same-Spin Energy          =      -0.1244268521493330 [Eh]
	 Opposite-Spin Energy      =      -0.4204139745379049 [Eh]
	 Correlation Energy        =      -0.5448408266872380 [Eh]
	 Total Energy              =    -157.8326765495247059 [Eh]
	 SCS Total Energy          =    -157.8338081096660517 [Eh]
  Basis Set: 6-31G(D)
  Basis Set:
  @DF-RHF Final Energy:  -157.29086167056869
    Total Energy =                       -157.2908616705688587
  Basis Set:
  Basis Set: 6-31G(D)
  Basis Set:
  @DF-RHF Final Energy:  -157.29175201159717
    Total Energy =                       -157.2917520115971399
  @DF-RHF Final Energy:  -157.29203448378746
    Total Energy =                       -157.2920344837872904
  @DF-RHF Final Energy:  -157.29202071841539
    Total Energy =                       -157.2920207184154151
	 Singles Energy            =      -0.0000000000000000 [Eh]
	 Same-Spin Energy          =      -0.1242749296210604 [Eh]
	 Opposite-Spin Energy      =      -0.4224323158659333 [Eh]
	 Correlation Energy        =      -0.5467072454869938 [Eh]
	 Total Energy              =    -157.8387279639023859 [Eh]
	 SCS Total Energy          =    -157.8403644739948675 [Eh]
  Charge       = 0
  Multiplicity = 1
  Basis Set: 6-31G(D)
  Basis Set:

    Orbital Energies (a.u.)
    -----------------------

    Doubly Occupied:

       1A    -11.215466     2A    -11.214909     3A    -11.210531
       4A    -11.210524     5A     -1.067637     6A     -0.978932
       7A     -0.860290     8A     -0.785727     9A     -0.628748
      10A     -0.598346    11A     -0.579589    12A     -0.550564
      13A     -0.508244    14A     -0.508192    15A     -0.465847
      16A     -0.454100    17A     -0.453776

  @DF-RHF Final Energy:  -157.29203895103163

   => Energetics <=

    Nuclear Repulsion Energy =            131.0780345533057414
    One-Electron Energy =                -470.1573050544841408
    Two-Electron Energy =                 181.7872315501466858
    DFT Exchange-Correlation Energy =       0.0000000000000000
    Empirical Dispersion Energy =           0.0000000000000000
    PCM Polarization Energy =               0.0000000000000000
    EFP Energy =                            0.0000000000000000
    Total Energy =                       -157.2920389510316852
  Basis Set:
    Molecular point group: c1
  Basis Set: 6-31G(D)
  Basis Set:
  Basis Set:
	 Reference Energy          =    -157.2920389510316284 [Eh]
	 Singles Energy            =      -0.0000000000000000 [Eh]
	 Same-Spin Energy          =      -0.1242727415689349 [Eh]
	 Opposite-Spin Energy      =      -0.4224170590770878 [Eh]
	 Correlation Energy        =      -0.5466898006460227 [Eh]
	 Total Energy              =    -157.8387287516776496 [Eh]

	 ================> DF-SCS-MP2 Energies <==================
	-----------------------------------------------------------
	 SCS Same-Spin Scale       =       0.3333333333333333 [-]
	 SCS Opposite-Spin Scale   =       1.2000000000000000 [-]
	 SCS Same-Spin Energy      =      -0.0414242471896449 [Eh]
	 SCS Opposite-Spin Energy  =      -0.5069004708925053 [Eh]
	 SCS Correlation Energy    =      -0.5483247180821503 [Eh]
	 SCS Total Energy          =    -157.8403636691137706 [Eh]
	-----------------------------------------------------------

  -Total Gradient:
     Atom            X                  Y                   Z
    ------   -----------------  -----------------  -----------------
       1        0.000003108508     0.000006192243     0.000002365907
       2       -0.000011040249     0.000001796894    -0.000007248537
       3        0.000001009246    -0.000006589849     0.000003132480
       4        0.000024646606     0.000001484064     0.000089196677
       5       -0.000029057836     0.000007427342     0.000001001832
       6        0.000016331895     0.000008345256    -0.000023658721
       7       -0.000043039985     0.000042610700    -0.000075239106
       8        0.000023020076     0.000009535824    -0.000016602211
       9        0.000005366636    -0.000018087746     0.000023417578
      10        0.000089670645    -0.000021677134     0.000026842539
      11        0.000008692696    -0.000003284454     0.000009568160
      12       -0.000000278442    -0.000005250574    -0.000006178558
      13       -0.000005885775     0.000004278359     0.000001337732
      14       -0.000082544021    -0.000026780927    -0.000027935771

  **** Optimization is complete! (in 6 steps) ****
    Final optimized geometry and variables:
    Molecular point group: c1

    Geometry (in Angstrom), charge = 0, multiplicity = 1:

    H           -2.125976912286     0.180358529432     0.028816669738
    H           -1.968126614891     1.823085900075    -0.608533761578
    H           -1.667324683397     0.432022839290    -1.658864948273
    C           -1.541315787269     0.816534719437    -0.642570191958
    H            0.486843675753     1.482798831002    -0.906627195280
    H            0.026227149405     1.244925920128     0.763342732995
    C           -0.069670155135     0.814857602959    -0.240544980305
    H           -0.196704120937    -1.322382825736    -0.588079495747
    H            1.362286009540    -0.642672917589    -0.994398867937
    C            0.553772744489    -0.594913439883    -0.257144800180
    H            1.513766840255    -2.029518187224     1.075668667355
    H            0.293578081621    -1.012913920951     1.854987637956
    H            1.874410559756    -0.337903739489     1.445957299743
    C            1.090893032053    -1.021176775134     1.105635409519

*** Psi4 exiting successfully. Buy a developer a beer!
