                               Psi4 1.1 release

  ==> Input File <==

--------------------------------------------------------------------------

molecule phepyr {
  symmetry C1
  0 1
  C      1.885   -1.036   -0.112
  C      0.807   -0.463   0.561
  C      2.921   -1.631   0.608
  C      0.764   -0.484   1.955
  C      2.878   -1.652   2.002
  C      2.888   -0.778   4.860
  C      0.578   -1.443   4.778
  C      2.793   -0.812   6.242
  C      0.586   -1.448   6.164
  C      1.800   -1.079   2.676
  C      1.755   -1.100   4.122
  N      1.667   -1.140   6.915
  H      1.917   -1.021   -1.198
  H      -0.001   -0.002   0.000
  H      3.760   -2.079   0.084
  H      -0.084   -0.033   2.466
  H      3.693   -2.120   2.550
  H      3.824   -0.504   4.384
  H      -0.325   -1.701   4.235
  H      3.648   -0.567   6.864
  H      -0.306   -1.709   6.723
  units Angstrom
}

dih_string = "4 10 11 6 225"
set optking fixed_dihedral = $dih_string

optimize('MP2/aug-cc-PVTZ')
--------------------------------------------------------------------------

    Molecular point group: c1
  Charge       = 0
  Multiplicity = 1
  Basis Set: AUG-CC-PVTZ
    Blend: AUG-CC-PVTZ
  Basis Set: (AUG-CC-PVTZ AUX)
    Blend: AUG-CC-PVTZ-JKFIT
  @DF-RHF Final Energy:  -476.39716902891934
    Total Energy =                       -476.3971690289192793
  Basis Set: (AUG-CC-PVTZ AUX)
    Blend: AUG-CC-PVTZ-RI
    Molecular point group: c1
  Basis Set: AUG-CC-PVTZ
    Blend: AUG-CC-PVTZ
  Basis Set: (AUG-CC-PVTZ AUX)
    Blend: AUG-CC-PVTZ-JKFIT
  Basis Set: (AUG-CC-PVTZ AUX)
    Blend: AUG-CC-PVTZ-JKFIT
	 Reference Energy          =    -476.3971690289193361 [Eh]
	 Singles Energy            =      -0.0000000000000004 [Eh]
	 Same-Spin Energy          =      -0.5349276941263964 [Eh]
	 Opposite-Spin Energy      =      -1.6428912261568154 [Eh]
	 Correlation Energy        =      -2.1778189202832121 [Eh]
	 Total Energy              =    -478.5749879492025229 [Eh]
	 SCS Total Energy          =    -478.5469477316829625 [Eh]
    Molecular point group: c1
  Charge       = 0
  Multiplicity = 1
  Basis Set: AUG-CC-PVTZ
    Blend: AUG-CC-PVTZ
  Basis Set: (AUG-CC-PVTZ AUX)
    Blend: AUG-CC-PVTZ-JKFIT

    Orbital Energies (a.u.)
    -----------------------

    Doubly Occupied:

       1A    -15.562778     2A    -11.272904     3A    -11.272886
       4A    -11.265235     5A    -11.252900     6A    -11.244363
       7A    -11.244315     8A    -11.243326     9A    -11.242872
      10A    -11.241746    11A    -11.237472    12A    -11.237436
      13A     -1.257401    14A     -1.175363    15A     -1.108210
      16A     -1.036636    17A     -1.026003    18A     -1.018876
      19A     -0.880779    20A     -0.866114    21A     -0.831895
      22A     -0.808195    23A     -0.733454    24A     -0.685871
      25A     -0.672247    26A     -0.660184    27A     -0.633095
      28A     -0.630520    29A     -0.602173    30A     -0.594075
      31A     -0.582338    32A     -0.545461    33A     -0.525418
      34A     -0.512725    35A     -0.509375    36A     -0.499629
      37A     -0.419154    38A     -0.399265    39A     -0.349511
      40A     -0.347847    41A     -0.328213

  @DF-RHF Final Energy:  -476.40192601762880

   => Energetics <=

    Nuclear Repulsion Energy =            606.1329947059621190
    One-Electron Energy =               -1845.9533234957914374
    Two-Electron Energy =                 763.4184027722005794
    DFT Exchange-Correlation Energy =       0.0000000000000000
    Empirical Dispersion Energy =           0.0000000000000000
    PCM Polarization Energy =               0.0000000000000000
    EFP Energy =                            0.0000000000000000
    Total Energy =                       -476.4019260176287389
  Basis Set: (AUG-CC-PVTZ AUX)
    Blend: AUG-CC-PVTZ-RI
    Molecular point group: c1

    Geometry (in Angstrom), charge = 0, multiplicity = 1:

       Center              X                  Y                   Z               Mass
    ------------   -----------------  -----------------  -----------------  -----------------
           C          0.110127378345     0.054257660633    -3.544259370921    12.000000000000
           C         -0.963471378208     0.622237986405    -2.871982133980    12.000000000000
           C          1.140728044426    -0.536313540660    -2.825429596071    12.000000000000
           C         -1.006668020825     0.598640065263    -1.484387941372    12.000000000000
           C          1.097233751254    -0.557544043848    -1.437808554868    12.000000000000
           C          1.098286272349     0.304198279684     1.469741179520    12.000000000000
           C         -1.186983356310    -0.348600656901     1.390202233464    12.000000000000
           C          1.005915456719     0.272661911905     2.852226568294    12.000000000000
           C         -1.180706368982    -0.352952934927     2.776182365393    12.000000000000
           C          0.022993822467     0.008154325204    -0.754182789303    12.000000000000
           C         -0.021757554152    -0.013182224619     0.709950365519    12.000000000000
           N         -0.109344444469    -0.049402829121     3.519358351756    14.003074004780
           H          0.143056637481     0.070790684518    -4.623741813336     1.007825032070
           H         -1.766004915725     1.083697509725    -3.428452332282     1.007825032070
           H          1.975669799726    -0.982166016483    -3.345564592039     1.007825032070
           H         -1.843542135903     1.048221930862    -0.969468788969     1.007825032070
           H          1.901186062201    -1.024066630649    -0.886695923857     1.007825032070
           H          2.027686587747     0.579913288492     0.995253499759     1.007825032070
           H         -2.084809155668    -0.609279570093     0.851005828065     1.007825032070
           H          1.859892736835     0.520335214027     3.468076928938     1.007825032070
           H         -2.071462431004    -0.614904518486     3.330787839409     1.007825032070

  Basis Set: AUG-CC-PVTZ
    Blend: AUG-CC-PVTZ
  Basis Set: (AUG-CC-PVTZ AUX)
    Blend: AUG-CC-PVTZ-JKFIT
  Basis Set: (AUG-CC-PVTZ AUX)
    Blend: AUG-CC-PVTZ-JKFIT
	 Reference Energy          =    -476.4019260176287958 [Eh]
	 Singles Energy            =      -0.0000000000000002 [Eh]
	 Same-Spin Energy          =      -0.5341550160749250 [Eh]
	 Opposite-Spin Energy      =      -1.6409648222919160 [Eh]
	 Correlation Energy        =      -2.1751198383668409 [Eh]
	 Total Energy              =    -478.5770458559956637 [Eh]

	 ================> DF-SCS-MP2 Energies <==================
	-----------------------------------------------------------
	 SCS Same-Spin Scale       =       0.3333333333333333 [-]
	 SCS Opposite-Spin Scale   =       1.2000000000000000 [-]
	 SCS Same-Spin Energy      =      -0.1780516720249750 [Eh]
	 SCS Opposite-Spin Energy  =      -1.9691577867502992 [Eh]
	 SCS Correlation Energy    =      -2.1472094587752744 [Eh]
	 SCS Total Energy          =    -478.5491354764040466 [Eh]
	-----------------------------------------------------------

  -Total Gradient:
     Atom            X                  Y                   Z
    ------   -----------------  -----------------  -----------------
       1       -0.000089691750     0.000126515873     0.000945724312
       2        0.000344649459     0.000255847792    -0.000882171539
       3       -0.000013839078    -0.000265791942    -0.000898834691
       4        0.001731913951     0.001313433592     0.002563027667
       5       -0.002013650321    -0.001060583467     0.002417249218
       6        0.000496958901     0.002004104061    -0.002812912388
       7       -0.000582196548    -0.001955622045    -0.002838490598
       8        0.001369378620     0.000630677039    -0.003795508798
       9       -0.001047794261    -0.000508525202    -0.003679611605
      10        0.000021379215    -0.000327532395    -0.001565130446
      11        0.000034688349    -0.000119270771     0.004557311181
      12       -0.000238595905    -0.000091926916     0.005654068773
      13        0.000001225759    -0.000022895244    -0.000660564482
      14       -0.000473040412     0.000008573568    -0.000517216585
      15        0.000395988886    -0.000085249492    -0.000465093803
      16       -0.001102724497    -0.000105044674    -0.000753611640
      17        0.001161320838     0.000132282527    -0.000682889594
      18        0.000363707054    -0.000471537056     0.000446759151
      19       -0.000315413930     0.000541035034     0.000370874372
      20       -0.000490056844    -0.000203267262     0.001320576874
      21        0.000445792509     0.000204776973     0.001276444610

*** Psi4 exiting successfully. Buy a developer a beer!
