                               Psi4 1.1 release

  ==> Input File <==

--------------------------------------------------------------------------

memory 1000 mb

molecule butane {
  symmetry C1
  0 1
  H      1.604   0.760   -8.260
  H      1.745   2.388   -8.880
  H      2.043   1.024   -9.930
  C      2.142   1.395   -8.932
  H      4.169   2.051   -9.210
  H      3.731   1.788   -7.539
  C      3.631   1.416   -8.537
  H      3.665   -0.647   -7.940
  H      4.104   -0.384   -9.610
  C      4.203   -0.012   -8.612
  H      5.954   -0.925   -7.769
  H      5.865   0.801   -7.520
  H      6.290   0.166   -9.091
  C      5.691   0.009   -8.218
  units Angstrom
}

dih_string = "7 10 14 13 270"
set optking fixed_dihedral = $dih_string

optimize('MP2/aug-cc-pvtz')
--------------------------------------------------------------------------

    Molecular point group: c1
  Charge       = 0
  Multiplicity = 1
  Basis Set: AUG-CC-PVTZ
    Blend: AUG-CC-PVTZ
  Basis Set: (AUG-CC-PVTZ AUX)
    Blend: AUG-CC-PVTZ-JKFIT
  @DF-RHF Final Energy:  -157.35000741681745
    Total Energy =                       -157.3500074168174478
  Basis Set: (AUG-CC-PVTZ AUX)
    Blend: AUG-CC-PVTZ-RI
    Molecular point group: c1
  Basis Set: AUG-CC-PVTZ
    Blend: AUG-CC-PVTZ
  Basis Set: (AUG-CC-PVTZ AUX)
    Blend: AUG-CC-PVTZ-JKFIT
  Basis Set: (AUG-CC-PVTZ AUX)
    Blend: AUG-CC-PVTZ-JKFIT
	 Reference Energy          =    -157.3500074168174478 [Eh]
	 Singles Energy            =      -0.0000000000000000 [Eh]
	 Same-Spin Energy          =      -0.1654324585810003 [Eh]
	 Opposite-Spin Energy      =      -0.6391124549813312 [Eh]
	 Correlation Energy        =      -0.8045449135623315 [Eh]
	 Total Energy              =    -158.1545523303797722 [Eh]
	 SCS Total Energy          =    -158.1720865156553657 [Eh]
  @DF-RHF Final Energy:  -157.35277295977858
    Total Energy =                       -157.3527729597785765
  @DF-RHF Final Energy:  -157.35364083972664
    Total Energy =                       -157.3536408397266371
  @DF-RHF Final Energy:  -157.35395490375660
    Total Energy =                       -157.3539549037566019
  @DF-RHF Final Energy:  -157.35398103034623
    Total Energy =                       -157.3539810303462332
  Charge       = 0
  Multiplicity = 1
  Basis Set: AUG-CC-PVTZ
    Blend: AUG-CC-PVTZ
  Basis Set: (AUG-CC-PVTZ AUX)
    Blend: AUG-CC-PVTZ-JKFIT

    Orbital Energies (a.u.)
    -----------------------

    Doubly Occupied:

       1A    -11.211477     2A    -11.210799     3A    -11.205925
       4A    -11.205766     5A     -1.073497     6A     -0.981378
       7A     -0.861553     8A     -0.788211     9A     -0.639961
      10A     -0.584742    11A     -0.577719    12A     -0.568549
      13A     -0.513329    14A     -0.495717    15A     -0.470422
      16A     -0.459801    17A     -0.454980

  @DF-RHF Final Energy:  -157.35398767418752

   => Energetics <=

    Nuclear Repulsion Energy =            131.4082806614007950
    One-Electron Energy =                -470.9168879642686534
    Two-Electron Energy =                 182.1546196286803365
    DFT Exchange-Correlation Energy =       0.0000000000000000
    Empirical Dispersion Energy =           0.0000000000000000
    PCM Polarization Energy =               0.0000000000000000
    EFP Energy =                            0.0000000000000000
    Total Energy =                       -157.3539876741875219
  Basis Set: (AUG-CC-PVTZ AUX)
    Blend: AUG-CC-PVTZ-RI
    Molecular point group: c1
  Basis Set: AUG-CC-PVTZ
    Blend: AUG-CC-PVTZ
  Basis Set: (AUG-CC-PVTZ AUX)
    Blend: AUG-CC-PVTZ-JKFIT
  Basis Set: (AUG-CC-PVTZ AUX)
    Blend: AUG-CC-PVTZ-JKFIT
	 Reference Energy          =    -157.3539876741875219 [Eh]
	 Singles Energy            =      -0.0000000000000000 [Eh]
	 Same-Spin Energy          =      -0.1654418393877485 [Eh]
	 Opposite-Spin Energy      =      -0.6395145009182356 [Eh]
	 Correlation Energy        =      -0.8049563403059841 [Eh]
	 Total Energy              =    -158.1589440144934997 [Eh]

	 ================> DF-SCS-MP2 Energies <==================
	-----------------------------------------------------------
	 SCS Same-Spin Scale       =       0.3333333333333333 [-]
	 SCS Opposite-Spin Scale   =       1.2000000000000000 [-]
	 SCS Same-Spin Energy      =      -0.0551472797959161 [Eh]
	 SCS Opposite-Spin Energy  =      -0.7674174011018827 [Eh]
	 SCS Correlation Energy    =      -0.8225646808977989 [Eh]
	 SCS Total Energy          =    -158.1765523550853345 [Eh]
	-----------------------------------------------------------

  -Total Gradient:
     Atom            X                  Y                   Z
    ------   -----------------  -----------------  -----------------
       1       -0.000014504238    -0.000003953957    -0.000006339543
       2       -0.000015954499     0.000002735392     0.000001175892
       3        0.000011309258    -0.000001787927    -0.000004880813
       4        0.000010288477     0.000010709608     0.000048080450
       5        0.000018743280    -0.000003073450    -0.000003116192
       6       -0.000006384951     0.000011783713    -0.000018421226
       7       -0.000594907900    -0.000359230074     0.002348293749
       8        0.000015876522    -0.000004106863    -0.000023733207
       9       -0.000015482625    -0.000005378407    -0.000023995830
      10        0.000867144104    -0.000378432074    -0.003386901110
      11        0.000003016644     0.000019210438     0.000004068079
      12        0.000017878023     0.000016330473     0.000013788409
      13        0.000114061036    -0.003355713546    -0.000496495939
      14       -0.000411083130     0.004050906678     0.001548477282

  **** Optimization is complete! (in 6 steps) ****
    Final optimized geometry and variables:
    Molecular point group: c1

    Geometry (in Angstrom), charge = 0, multiplicity = 1:

    H           -2.353806903352     0.034373354700     0.280706892069
    H           -2.210500230069     1.687340315696    -0.306833641727
    H           -1.894581441183     0.335795070348    -1.389167751961
    C           -1.776806173938     0.691880336495    -0.367357635493
    H            0.248109469221     1.364544235790    -0.613881276528
    H           -0.210525011295     1.081569778519     1.049237827514
    C           -0.314729937863     0.691782299015     0.035869041158
    H           -0.242264898533    -1.335149191218     0.672311091931
    H            0.164233822432    -1.117468889497    -1.010899670650
    C            0.305858010968    -0.691726292721    -0.017291414411
    H            2.087551037028    -1.639749546791     0.782183124347
    H            2.008563284338     0.091696194924     1.072078622989
    H            2.408123930004    -0.536323325904    -0.529910429099
    C            1.785266315401    -0.689133581086     0.348290811408

*** Psi4 exiting successfully. Buy a developer a beer!
