                              Psi4 1.0.0 Driver

  ==> Input File <==

--------------------------------------------------------------------------

memory 1000 mb

molecule butane {
  symmetry C1
  0 1
  H      1.604   0.760   -8.260
  H      1.745   2.388   -8.880
  H      2.043   1.024   -9.930
  C      2.142   1.395   -8.932
  H      4.169   2.051   -9.210
  H      3.731   1.788   -7.539
  C      3.631   1.416   -8.537
  H      5.267   0.025   -8.509
  H      3.789   -0.604   -7.823
  C      4.203   -0.012   -8.612
  H      4.237   -1.632   -10.021
  H      4.253   -0.049   -10.759
  H      2.775   -0.678   -10.073
  C      3.840   -0.641   -9.970
  units Angstrom
}

dih_string = "4 7 10 14 50"
set optking fixed_dihedral = $dih_string

optimize('B3LYP/cc-PVDZ')
--------------------------------------------------------------------------

    Molecular point group: c1
  Charge       = 0
  Multiplicity = 1
  Basis Set: CC-PVDZ
   => B3LYP Composite Functional <=
  Basis Set:
  @DF-RKS Final Energy:  -158.44397254899701
    Total Energy =                       -158.4439725489970101
    Molecular point group: c1
  Basis Set: CC-PVDZ
  Basis Set:
   => B3LYP Composite Functional <=
  Basis Set: CC-PVDZ
   => B3LYP Composite Functional <=
  Basis Set:
  @DF-RKS Final Energy:  -158.45114910060656
    Total Energy =                       -158.4511491006065569
  Basis Set: CC-PVDZ
  Basis Set:
   => B3LYP Composite Functional <=
  Basis Set: CC-PVDZ
   => B3LYP Composite Functional <=
  Basis Set:
  @DF-RKS Final Energy:  -158.45480310344323
    Total Energy =                       -158.4548031034432256
  Basis Set: CC-PVDZ
  Basis Set:
  @DF-RKS Final Energy:  -158.45615727445659
    Total Energy =                       -158.4561572744565865
  @DF-RKS Final Energy:  -158.45657506733832
    Total Energy =                       -158.4565750673383207
   => B3LYP Composite Functional <=
  Basis Set:
  @DF-RKS Final Energy:  -158.45666597743778
    Total Energy =                       -158.4566659774377797
  Basis Set: CC-PVDZ
  Basis Set:
   => B3LYP Composite Functional <=
  Basis Set: CC-PVDZ
   => B3LYP Composite Functional <=
  Basis Set:
  @DF-RKS Final Energy:  -158.45669428850880
    Total Energy =                       -158.4566942885087997
  Basis Set: CC-PVDZ
  Basis Set:
   => B3LYP Composite Functional <=
  Charge       = 0
  Multiplicity = 1
  Basis Set: CC-PVDZ
   => B3LYP Composite Functional <=
  Basis Set:

    Orbital Energies (a.u.)
    -----------------------

    Doubly Occupied:

       1A    -10.180537     2A    -10.180371     3A    -10.175384
       4A    -10.175371     5A     -0.789833     6A     -0.716087
       7A     -0.639017     8A     -0.559956     9A     -0.454577
      10A     -0.448501    11A     -0.410875    12A     -0.384260
      13A     -0.376961    14A     -0.355979    15A     -0.323670
      16A     -0.321621    17A     -0.315754

  @DF-RKS Final Energy:  -158.45669519406113

   => Energetics <=

    Nuclear Repulsion Energy =            131.9014841960270417
    One-Electron Energy =                -472.3007024921020047
    Two-Electron Energy =                 202.5262525137560772
    DFT Exchange-Correlation Energy =     -20.5837294117422118
    Empirical Dispersion Energy =           0.0000000000000000
    PCM Polarization Energy =               0.0000000000000000
    EFP Energy =                            0.0000000000000000
    Total Energy =                       -158.4566951940611261
    Molecular point group: c1
  Basis Set: CC-PVDZ
  Basis Set:
   => B3LYP Composite Functional <=

  -Total Gradient:
     Atom            X                  Y                   Z
    ------   -----------------  -----------------  -----------------
       1        0.000005038223     0.000004919507    -0.000004726548
       2        0.000004272756     0.000009830880    -0.000006115489
       3       -0.000003721781     0.000000001494    -0.000013792162
       4        0.000524111015     0.000383092371    -0.002126965948
       5       -0.000014735893    -0.000012535758     0.000016556404
       6        0.000008863073    -0.000003236628     0.000000670245
       7       -0.001538110376    -0.000924935386     0.003389965314
       8       -0.000000808054     0.000006279506     0.000007031505
       9        0.000011361688     0.000011775478    -0.000020334463
      10        0.002870425061     0.001392060973    -0.002128746995
      11       -0.000003045458    -0.000008152355     0.000008014231
      12       -0.000003069528    -0.000004145064     0.000006907486
      13       -0.000014031887    -0.000005918922    -0.000002125439
      14       -0.001863306676    -0.000854919280     0.000857804586

  **** Optimization is complete! (in 8 steps) ****
    Final optimized geometry and variables:
    Molecular point group: c1

    Geometry (in Angstrom), charge = 0, multiplicity = 1:

    H           -1.941272583925     0.281123013797     0.755255692451
    H           -1.709861710319     1.988257361210     0.312019244065
    H           -1.525451749408     0.720968239683    -0.917591787374
    C           -1.333227730277     0.966919173990     0.138976141601
    H            0.718937566442     1.549872836423    -0.174075290784
    H            0.319626151526     1.238311079722     1.514887984068
    C            0.154861234808     0.865877243545     0.488376065765
    H            1.847998707340    -0.477319412103     0.536213724176
    H            0.369261002094    -1.167835731145     1.203776468572
    C            0.757608520386    -0.545535461075     0.375042518181
    H            0.999875262206    -2.237512212149    -0.983834942991
    H            0.823757860433    -0.673450864636    -1.812696710538
    H           -0.595402346379    -1.465535675839    -1.089251359855
    C            0.478920552069    -1.266842306667    -0.947359334040

*** Psi4 exiting successfully. Buy a developer a beer!
