                               Psi4 1.1 release

  ==> Input File <==

--------------------------------------------------------------------------

memory 5 Gb

molecule phepyrFOH_cation {
  symmetry C1
  1 1
  C      1.885   -1.036   -0.112
  C      0.807   -0.463   0.561
  C      3.812   -3.038   -1.201
  C      5.339   -1.984   0.335
  C      1.800   -1.079   2.676
  C      4.901   -3.594   -1.855
  C      6.391   -2.567   -0.359
  C      2.921   -1.631   0.608
  C      4.038   -2.225   -0.095
  C      0.764   -0.484   1.955
  C      2.878   -1.652   2.002
  N      6.144   -3.346   -1.421
  O      -0.289   0.076   2.612
  F      3.866   -2.220   2.709
  H      1.904   -1.012   -1.199
  H      0.002   -0.002   -0.006
  H      2.807   -3.243   -1.558
  H      5.545   -1.354   1.195
  H      1.772   -1.099   3.762
  H      4.821   -4.236   -2.722
  H      7.431   -2.436   -0.097
  H      6.931   -3.766   -1.915
  H      -0.175   -0.018   3.571
  units Angstrom
}

dih_string = "1 8 9 3 315"
set optking fixed_dihedral = $dih_string

optimize('MP2/aug-cc-PVTZ')
--------------------------------------------------------------------------

    Molecular point group: c1
  Charge       = 1
  Multiplicity = 1
  Basis Set: AUG-CC-PVTZ
    Blend: AUG-CC-PVTZ
  Basis Set: (AUG-CC-PVTZ AUX)
    Blend: AUG-CC-PVTZ-JKFIT
  @DF-RHF Final Energy:  -650.56162627574599
    Total Energy =                       -650.5616262757459936
  Basis Set: (AUG-CC-PVTZ AUX)
    Blend: AUG-CC-PVTZ-RI
    Molecular point group: c1
  Basis Set: AUG-CC-PVTZ
    Blend: AUG-CC-PVTZ
  Basis Set: (AUG-CC-PVTZ AUX)
    Blend: AUG-CC-PVTZ-JKFIT
  Basis Set: (AUG-CC-PVTZ AUX)
    Blend: AUG-CC-PVTZ-JKFIT
	 Reference Energy          =    -650.5616262757459936 [Eh]
	 Singles Energy            =      -0.0000000000000005 [Eh]
	 Same-Spin Energy          =      -0.6695496643323735 [Eh]
	 Opposite-Spin Energy      =      -2.0146169324027454 [Eh]
	 Correlation Energy        =      -2.6841665967351194 [Eh]
	 Total Energy              =    -653.2457928724811609 [Eh]
	 SCS Total Energy          =    -653.2023498160733652 [Eh]
  @DF-RHF Final Energy:  -650.56745287734941
    Total Energy =                       -650.5674528773495240
  @DF-RHF Final Energy:  -650.56915270769844
    Total Energy =                       -650.5691527076985494
  @DF-RHF Final Energy:  -650.56916579895562
    Total Energy =                       -650.5691657989555097
  @DF-RHF Final Energy:  -650.56913026714312
    Total Energy =                       -650.5691302671430094
  @DF-RHF Final Energy:  -650.56913246435545
    Total Energy =                       -650.5691324643553344
  @DF-RHF Final Energy:  -650.56913256910798
    Total Energy =                       -650.5691325691079783
  @DF-RHF Final Energy:  -650.56902521485165
    Total Energy =                       -650.5690252148515356
  @DF-RHF Final Energy:  -650.56905487426707
    Total Energy =                       -650.5690548742670671
  @DF-RHF Final Energy:  -650.56910821525719
    Total Energy =                       -650.5691082152570743
  @DF-RHF Final Energy:  -650.56911433131609
    Total Energy =                       -650.5691143313160865
  @DF-RHF Final Energy:  -650.56911201275784
    Total Energy =                       -650.5691120127578415
  @DF-RHF Final Energy:  -650.56911247176822
    Total Energy =                       -650.5691124717682214
  Charge       = 1
  Multiplicity = 1
  Basis Set: AUG-CC-PVTZ
    Blend: AUG-CC-PVTZ
  Basis Set: (AUG-CC-PVTZ AUX)
    Blend: AUG-CC-PVTZ-JKFIT

    Orbital Energies (a.u.)
    -----------------------

    Doubly Occupied:

       1A    -26.444246     2A    -20.714444     3A    -15.833320
       4A    -11.482850     5A    -11.481053     6A    -11.471535
       7A    -11.453519     8A    -11.445043     9A    -11.413906
      10A    -11.411787    11A    -11.385564    12A    -11.379072
      13A    -11.361232    14A    -11.351406    15A     -1.763753
      16A     -1.537926    17A     -1.510639    18A     -1.323815
      19A     -1.275519    20A     -1.240458    21A     -1.169353
      22A     -1.159243    23A     -1.066462    24A     -1.063894
      25A     -0.996992    26A     -0.971541    27A     -0.961458
      28A     -0.898798    29A     -0.871996    30A     -0.862362
      31A     -0.857786    32A     -0.831644    33A     -0.818036
      34A     -0.807835    35A     -0.794756    36A     -0.774919
      37A     -0.764631    38A     -0.751356    39A     -0.731659
      40A     -0.717967    41A     -0.708782    42A     -0.691675
      43A     -0.665817    44A     -0.646981    45A     -0.631501
      46A     -0.574795    47A     -0.539582    48A     -0.478200
      49A     -0.445673

  @DF-RHF Final Energy:  -650.56911395887948

   => Energetics <=

    Nuclear Repulsion Energy =            831.7117084376147886
    One-Electron Energy =               -2523.4880792399103484
    Two-Electron Energy =                1041.2072568434159621
    DFT Exchange-Correlation Energy =       0.0000000000000000
    Empirical Dispersion Energy =           0.0000000000000000
    PCM Polarization Energy =               0.0000000000000000
    EFP Energy =                            0.0000000000000000
    Total Energy =                       -650.5691139588795977
  Basis Set: (AUG-CC-PVTZ AUX)
    Blend: AUG-CC-PVTZ-RI
    Molecular point group: c1
  Basis Set: AUG-CC-PVTZ
    Blend: AUG-CC-PVTZ
  Basis Set: (AUG-CC-PVTZ AUX)
    Blend: AUG-CC-PVTZ-JKFIT
  Basis Set: (AUG-CC-PVTZ AUX)
    Blend: AUG-CC-PVTZ-JKFIT
	 Reference Energy          =    -650.5691139588794840 [Eh]
	 Singles Energy            =      -0.0000000000000005 [Eh]
	 Same-Spin Energy          =      -0.6687053295055380 [Eh]
	 Opposite-Spin Energy      =      -2.0122702257198437 [Eh]
	 Correlation Energy        =      -2.6809755552253822 [Eh]
	 Total Energy              =    -653.2500895141048431 [Eh]

	 ================> DF-SCS-MP2 Energies <==================
	-----------------------------------------------------------
	 SCS Same-Spin Scale       =       0.3333333333333333 [-]
	 SCS Opposite-Spin Scale   =       1.2000000000000000 [-]
	 SCS Same-Spin Energy      =      -0.2229017765018460 [Eh]
	 SCS Opposite-Spin Energy  =      -2.4147242708638124 [Eh]
	 SCS Correlation Energy    =      -2.6376260473656590 [Eh]
	 SCS Total Energy          =    -653.2067400062451270 [Eh]
	-----------------------------------------------------------

  -Total Gradient:
     Atom            X                  Y                   Z
    ------   -----------------  -----------------  -----------------
       1        0.001648767791     0.003190129515     0.000158394643
       2       -0.000007633902    -0.000027548705     0.000003642409
       3       -0.000158800669    -0.002899753945     0.002100297864
       4       -0.000010352308     0.000012599916     0.000000720288
       5       -0.000013006795    -0.000014422335     0.000003292328
       6        0.000003493792     0.000011740594    -0.000004990193
       7        0.000000727150     0.000005195116    -0.000017008846
       8       -0.002533414921    -0.006167040849     0.000789970570
       9        0.001060878601     0.005869599866    -0.003029528634
      10        0.000039560542     0.000071908401     0.000000621978
      11       -0.000028709072    -0.000010233466    -0.000017566362
      12        0.000002528176    -0.000008837615     0.000011730954
      13       -0.000009892456    -0.000019867452     0.000000083074
      14        0.000006852409    -0.000002071880     0.000008237840
      15        0.000000299866    -0.000002539115    -0.000002201302
      16       -0.000001949146     0.000001281071    -0.000000762814
      17        0.000002454755     0.000003266039    -0.000001591938
      18        0.000000722510    -0.000003875234    -0.000005178183
      19        0.000001835371    -0.000003313889    -0.000002255697
      20       -0.000000837969     0.000000356590     0.000002208949
      21       -0.000001102817    -0.000001052911     0.000001343130
      22        0.000000005403    -0.000000315394     0.000002504500
      23       -0.000002426306    -0.000005204315    -0.000001964552

  **** Optimization is complete! (in 14 steps) ****
    Final optimized geometry and variables:
    Molecular point group: c1

    Geometry (in Angstrom), charge = 1, multiplicity = 1:

    C           -1.368317170869     0.718702048287    -0.770807742904
    C           -2.429880852973     1.306242290540    -0.121675573260
    C            0.639493160074    -1.234292929584    -1.884616488768
    C            2.138633074923    -0.229392465646    -0.313935145839
    C           -1.434075629632     0.745499229619     2.002642269034
    C            1.715374849719    -1.778143689045    -2.541756771755
    C            3.192709220766    -0.789764230168    -0.992463352818
    C           -0.312609706045     0.131614555291    -0.062591261627
    C            0.825953998083    -0.428474431183    -0.756180661289
    C           -2.471261997827     1.314973389267     1.271816838948
    C           -0.376078355831     0.186921176604     1.325962240457
    N            2.953560301914    -1.541390502798    -2.079466445131
    O           -3.540408135646     1.892379539019     1.843021392536
    F            0.616639779747    -0.368244420160     2.042977354668
    H           -1.333002344274     0.736771624411    -1.850197966134
    H           -3.232686234571     1.771065741088    -0.670520100133
    H           -0.354021966568    -1.451243570960    -2.242688867067
    H            2.341826774021     0.377604265403     0.551746604173
    H           -1.437796532373     0.727574818402     3.081571426777
    H            1.630440288117    -2.409182985293    -3.410595695316
    H            4.223113959459    -0.659390037384    -0.706985845659
    H            3.739741198805    -1.951850513123    -2.567135378620
    H           -3.478893607416     1.851722679152     2.803929035915

*** Psi4 exiting successfully. Buy a developer a beer!
