                              Psi4 1.0.0 Driver

  ==> Input File <==

--------------------------------------------------------------------------

memory 1000 mb

molecule butane {
  symmetry C1
  0 1
  H      1.604   0.760   -8.260
  H      1.745   2.388   -8.880
  H      2.043   1.024   -9.930
  C      2.142   1.395   -8.932
  H      4.169   2.051   -9.210
  H      3.731   1.788   -7.539
  C      3.631   1.416   -8.537
  H      5.095   -0.070   -8.025
  H      3.482   -0.705   -8.233
  C      4.203   -0.012   -8.612
  H      4.926   -1.351   -10.128
  H      5.249   0.334   -10.456
  H      3.636   -0.302   -10.664
  C      4.528   -0.359   -10.076
  units Angstrom
}

dih_string = "4 7 10 14 80"
set optking fixed_dihedral = $dih_string

optimize('MP2/6-31G(d)')
--------------------------------------------------------------------------

    Molecular point group: c1
  Charge       = 0
  Multiplicity = 1
  Basis Set: 6-31G(D)
  Basis Set:
  @DF-RHF Final Energy:  -157.29125478907622
    Total Energy =                       -157.2912547890762767
  Basis Set:
    Molecular point group: c1
  Basis Set: 6-31G(D)
  Basis Set:
  Basis Set:
	 Reference Energy          =    -157.2912547890762198 [Eh]
	 Singles Energy            =      -0.0000000000000000 [Eh]
	 Same-Spin Energy          =      -0.1246874400873847 [Eh]
	 Opposite-Spin Energy      =      -0.4205078531209559 [Eh]
	 Correlation Energy        =      -0.5451952932083406 [Eh]
	 Total Energy              =    -157.8364500822845571 [Eh]
	 SCS Total Energy          =    -157.8374266928504994 [Eh]
  Basis Set: 6-31G(D)
  Basis Set:
  @DF-RHF Final Energy:  -157.29437830929550
    Total Energy =                       -157.2943783092956380
  Basis Set:
  Basis Set: 6-31G(D)
  Basis Set:
  @DF-RHF Final Energy:  -157.29531476430145
    Total Energy =                       -157.2953147643015370
  @DF-RHF Final Energy:  -157.29564721773630
    Total Energy =                       -157.2956472177362741
  @DF-RHF Final Energy:  -157.29567052926532
    Total Energy =                       -157.2956705292651804
	 Singles Energy            =      -0.0000000000000000 [Eh]
	 Same-Spin Energy          =      -0.1245509946594897 [Eh]
	 Opposite-Spin Energy      =      -0.4224465892444355 [Eh]
	 Correlation Energy        =      -0.5469975839039252 [Eh]
	 Total Energy              =    -157.8426681131692533 [Eh]
	 SCS Total Energy          =    -157.8441234345784778 [Eh]
  Charge       = 0
  Multiplicity = 1
  Basis Set: 6-31G(D)
  Basis Set:

    Orbital Energies (a.u.)
    -----------------------

    Doubly Occupied:

       1A    -11.215849     2A    -11.215259     3A    -11.210076
       4A    -11.210075     5A     -1.070010     6A     -0.976091
       7A     -0.868388     8A     -0.778197     9A     -0.621613
      10A     -0.618262    11A     -0.574957    12A     -0.535231
      13A     -0.525443    14A     -0.504110    15A     -0.465067
      16A     -0.456058    17A     -0.454366

  @DF-RHF Final Energy:  -157.29569402376060

   => Energetics <=

    Nuclear Repulsion Energy =            132.2702780991365614
    One-Electron Energy =                -472.5338406532756608
    Two-Electron Energy =                 182.9678685303784391
    DFT Exchange-Correlation Energy =       0.0000000000000000
    Empirical Dispersion Energy =           0.0000000000000000
    PCM Polarization Energy =               0.0000000000000000
    EFP Energy =                            0.0000000000000000
    Total Energy =                       -157.2956940237606318
  Basis Set:
    Molecular point group: c1
  Basis Set: 6-31G(D)
  Basis Set:
  Basis Set:
	 Reference Energy          =    -157.2956940237606034 [Eh]
	 Singles Energy            =      -0.0000000000000000 [Eh]
	 Same-Spin Energy          =      -0.1245484274891863 [Eh]
	 Opposite-Spin Energy      =      -0.4224273705124795 [Eh]
	 Correlation Energy        =      -0.5469757980016658 [Eh]
	 Total Energy              =    -157.8426698217622572 [Eh]

	 ================> DF-SCS-MP2 Energies <==================
	-----------------------------------------------------------
	 SCS Same-Spin Scale       =       0.3333333333333333 [-]
	 SCS Opposite-Spin Scale   =       1.2000000000000000 [-]
	 SCS Same-Spin Energy      =      -0.0415161424963954 [Eh]
	 SCS Opposite-Spin Energy  =      -0.5069128446149754 [Eh]
	 SCS Correlation Energy    =      -0.5484289871113709 [Eh]
	 SCS Total Energy          =    -157.8441230108719822 [Eh]
	-----------------------------------------------------------

  -Total Gradient:
     Atom            X                  Y                   Z
    ------   -----------------  -----------------  -----------------
       1       -0.000003326556     0.000009586527    -0.000008446893
       2       -0.000012552325     0.000000572563    -0.000004083414
       3        0.000005795520     0.000003779742     0.000008950064
       4       -0.000472585030    -0.000386276013     0.001934668553
       5       -0.000007722185     0.000000782140    -0.000000842244
       6        0.000005543331     0.000005419798    -0.000022744462
       7        0.001357919723     0.000881723365    -0.002555763679
       8       -0.000021320211    -0.000010728073    -0.000002895389
       9        0.000002813122    -0.000002602373    -0.000006788589
      10       -0.002697016031    -0.001305931975     0.000413136093
      11        0.000002302736    -0.000003827305    -0.000011981740
      12       -0.000004350714    -0.000012078867    -0.000003202302
      13        0.000006119207    -0.000000025872     0.000010005631
      14        0.001838379413     0.000819606343     0.000249988371

  **** Optimization is complete! (in 6 steps) ****
    Final optimized geometry and variables:
    Molecular point group: c1

    Geometry (in Angstrom), charge = 0, multiplicity = 1:

    H           -2.074799431716     0.147801152341     0.828167088690
    H           -1.926420079180     1.810692111756     0.245118538768
    H           -1.674245020382     0.461348350578    -0.864313521821
    C           -1.508067415436     0.803746129303     0.160927933965
    H            0.525738142630     1.493482356141    -0.104063864999
    H            0.081986138964     1.143753295247     1.556510970485
    C           -0.026510619444     0.785928808411     0.526042419090
    H            1.522003237778    -0.635412010910     1.008651905293
    H           -0.070498430246    -1.349206746871     0.832101392765
    C            0.608158402283    -0.601590150870     0.404152783624
    H            1.401239690217    -1.977134476775    -1.085006848242
    H            1.690155334771    -0.269703718717    -1.443303247225
    H            0.083067709705    -0.965633533021    -1.680366627592
    C            0.963522098685    -0.976325717830    -1.031787084012

*** Psi4 exiting successfully. Buy a developer a beer!
