                               Psi4 1.1 release

  ==> Input File <==

--------------------------------------------------------------------------

memory 5 Gb

molecule phepyrOH_cation {
  symmetry C1
  1 1
  C      1.885   -1.036   -0.112
  C      2.878   -1.652   2.002
  C      0.807   -0.463   0.561
  C      1.800   -1.079   2.676
  C      4.440   -1.719   -1.322
  C      4.716   -3.305   0.469
  C      5.516   -2.309   -1.970
  C      5.786   -3.855   -0.224
  C      2.921   -1.631   0.608
  C      4.040   -2.225   -0.090
  C      0.764   -0.484   1.955
  N      6.150   -3.348   -1.409
  O      -0.288   0.076   2.612
  H      1.904   -1.012   -1.199
  H      3.678   -2.112   2.578
  H      0.003   -0.001   -0.006
  H      1.772   -1.098   3.762
  H      3.931   -0.877   -1.782
  H      4.425   -3.721   1.429
  H      5.897   -1.982   -2.928
  H      6.368   -4.693   0.134
  H      6.938   -3.767   -1.902
  H      -0.301   -0.216   3.537
  units Angstrom
}

dih_string = "3 11 13 23 165"
set optking fixed_dihedral = $dih_string

optimize('MP2/aug-cc-PVTZ')
--------------------------------------------------------------------------

    Molecular point group: c1
  Charge       = 1
  Multiplicity = 1
  Basis Set: AUG-CC-PVTZ
    Blend: AUG-CC-PVTZ
  Basis Set: (AUG-CC-PVTZ AUX)
    Blend: AUG-CC-PVTZ-JKFIT
  @DF-RHF Final Energy:  -551.67561729872591
    Total Energy =                       -551.6756172987259106
  Basis Set: (AUG-CC-PVTZ AUX)
    Blend: AUG-CC-PVTZ-RI
    Molecular point group: c1
  Basis Set: AUG-CC-PVTZ
    Blend: AUG-CC-PVTZ
  Basis Set: (AUG-CC-PVTZ AUX)
    Blend: AUG-CC-PVTZ-JKFIT
  Basis Set: (AUG-CC-PVTZ AUX)
    Blend: AUG-CC-PVTZ-JKFIT
	 Reference Energy          =    -551.6756172987259106 [Eh]
	 Singles Energy            =      -0.0000000000000001 [Eh]
	 Same-Spin Energy          =      -0.5966421656153875 [Eh]
	 Opposite-Spin Energy      =      -1.8255124679370556 [Eh]
	 Correlation Energy        =      -2.4221546335524433 [Eh]
	 Total Energy              =    -554.0977719322783059 [Eh]
	 SCS Total Energy          =    -554.0651129821221730 [Eh]
  @DF-RHF Final Energy:  -551.68113070133472
    Total Energy =                       -551.6811307013347232
  @DF-RHF Final Energy:  -551.68246577194293
    Total Energy =                       -551.6824657719429297
  @DF-RHF Final Energy:  -551.68248248881730
    Total Energy =                       -551.6824824888172998
  @DF-RHF Final Energy:  -551.68248591375425
    Total Energy =                       -551.6824859137542489
  Charge       = 1
  Multiplicity = 1
  Basis Set: AUG-CC-PVTZ
    Blend: AUG-CC-PVTZ
  Basis Set: (AUG-CC-PVTZ AUX)
    Blend: AUG-CC-PVTZ-JKFIT

    Orbital Energies (a.u.)
    -----------------------

    Doubly Occupied:

       1A    -20.708512     2A    -15.825977     3A    -11.478326
       4A    -11.478185     5A    -11.449159     6A    -11.436125
       7A    -11.408359     8A    -11.407995     9A    -11.380862
      10A    -11.377393    11A    -11.373070    12A    -11.356083
      13A    -11.349628    14A     -1.531643    15A     -1.505197
      16A     -1.318375    17A     -1.266641    18A     -1.236378
      19A     -1.157518    20A     -1.156928    21A     -1.061446
      22A     -1.057597    23A     -0.979659    24A     -0.960900
      25A     -0.954454    26A     -0.873435    27A     -0.861741
      28A     -0.855464    29A     -0.819758    30A     -0.799564
      31A     -0.782923    32A     -0.770404    33A     -0.758816
      34A     -0.733427    35A     -0.725298    36A     -0.713690
      37A     -0.701989    38A     -0.682084    39A     -0.662754
      40A     -0.641178    41A     -0.617956    42A     -0.569180
      43A     -0.538229    44A     -0.474780    45A     -0.437225

  @DF-RHF Final Energy:  -551.68250161067817

   => Energetics <=

    Nuclear Repulsion Energy =            713.5650118942287463
    One-Electron Energy =               -2150.0224151483898822
    Two-Electron Energy =                 884.7749016434829628
    DFT Exchange-Correlation Energy =       0.0000000000000000
    Empirical Dispersion Energy =           0.0000000000000000
    PCM Polarization Energy =               0.0000000000000000
    EFP Energy =                            0.0000000000000000
    Total Energy =                       -551.6825016106781732
  Basis Set: (AUG-CC-PVTZ AUX)
    Blend: AUG-CC-PVTZ-RI
    Molecular point group: c1
  Basis Set: AUG-CC-PVTZ
    Blend: AUG-CC-PVTZ
  Basis Set: (AUG-CC-PVTZ AUX)
    Blend: AUG-CC-PVTZ-JKFIT
  Basis Set: (AUG-CC-PVTZ AUX)
    Blend: AUG-CC-PVTZ-JKFIT
	 Reference Energy          =    -551.6825016106781732 [Eh]
	 Singles Energy            =      -0.0000000000000002 [Eh]
	 Same-Spin Energy          =      -0.5957391031241310 [Eh]
	 Opposite-Spin Energy      =      -1.8234287153084450 [Eh]
	 Correlation Energy        =      -2.4191678184325758 [Eh]
	 Total Energy              =    -554.1016694291107569 [Eh]

	 ================> DF-SCS-MP2 Energies <==================
	-----------------------------------------------------------
	 SCS Same-Spin Scale       =       0.3333333333333333 [-]
	 SCS Opposite-Spin Scale   =       1.2000000000000000 [-]
	 SCS Same-Spin Energy      =      -0.1985797010413770 [Eh]
	 SCS Opposite-Spin Energy  =      -2.1881144583701340 [Eh]
	 SCS Correlation Energy    =      -2.3866941594115110 [Eh]
	 SCS Total Energy          =    -554.0691957700896637 [Eh]
	-----------------------------------------------------------

  -Total Gradient:
     Atom            X                  Y                   Z
    ------   -----------------  -----------------  -----------------
       1       -0.000112446346     0.000079180267    -0.000018083787
       2       -0.000040322095    -0.000001586013     0.000030334997
       3       -0.000920951906    -0.001774860715    -0.000224618845
       4       -0.000010677839     0.000056761663     0.000001736534
       5        0.000051305851     0.000028682670    -0.000047985572
       6        0.000024914830    -0.000058877886    -0.000016467894
       7       -0.000010379472    -0.000015756393     0.000025445066
       8       -0.000019183570     0.000023149761    -0.000005635530
       9        0.000086403339    -0.000036842661     0.000000530192
      10       -0.000062154775     0.000012270636     0.000052867578
      11        0.001077033748     0.001968113320     0.000003305080
      12        0.000006259001     0.000002471491    -0.000008744212
      13        0.001515478068     0.001806262508     0.000901024760
      14        0.000035576483    -0.000034104132    -0.000012003283
      15        0.000038600620    -0.000014488174    -0.000028518602
      16       -0.000032871287     0.000037935192     0.000032947546
      17       -0.000023890152    -0.000012829578     0.000019753809
      18       -0.000028900279     0.000016622355     0.000017522313
      19       -0.000026224493     0.000020104752     0.000026953040
      20        0.000006879723    -0.000011543040    -0.000011519958
      21        0.000018817094    -0.000000428874    -0.000003743683
      22        0.000011861696    -0.000005268860    -0.000006823253
      23       -0.001585128243    -0.002084968290    -0.000728276308

  **** Optimization is complete! (in 6 steps) ****
    Final optimized geometry and variables:
    Molecular point group: c1

    Geometry (in Angstrom), charge = 1, multiplicity = 1:

    C           -1.265521271056     0.767395531623    -0.547461044877
    C           -0.318179707874     0.064376497446     1.548921304252
    C           -2.334014894985     1.325489008792     0.118360684130
    C           -1.374676503109     0.643004724829     2.221733313779
    C            1.277784207105    -0.005470546560    -1.808666941479
    C            1.609806387711    -1.530940280777    -0.002738157773
    C            2.337694098445    -0.577179399257    -2.464661480982
    C            2.666776923170    -2.079769908334    -0.682509161433
    C           -0.239104654911     0.123219473395     0.154162637635
    C            0.875770710011    -0.467634379389    -0.547289752417
    C           -2.390372593556     1.277264035713     1.509731680387
    N            3.002149426881    -1.593117048693    -1.889079322302
    O           -3.450889198097     1.859306329052     2.095435285905
    H           -1.260352794835     0.789235708356    -1.626624517663
    H            0.474508548327    -0.389558366314     2.124098532554
    H           -3.141297420551     1.799231619763    -0.417534837718
    H           -1.408034038171     0.614683495885     3.301019944767
    H            0.780389576752     0.828668402224    -2.274960462658
    H            1.339114232460    -1.958736467865     0.948241859539
    H            2.687686876981    -0.249977553834    -3.429512577887
    H            3.252847501335    -2.902663905210    -0.308565617232
    H            3.782867520477    -2.006580591212    -2.381891514184
    H           -3.525262828376     1.582544498962     3.015558894283

*** Psi4 exiting successfully. Buy a developer a beer!
