                               Psi4 1.1 release

  ==> Input File <==

--------------------------------------------------------------------------

memory 5 Gb

molecule phepyrOH_anion {
  symmetry C1
  -1 1
  C      1.885   -1.036   -0.112
  C      2.878   -1.652   2.002
  C      0.807   -0.463   0.561
  C      1.800   -1.079   2.676
  C      5.013   -1.417   -0.667
  C      4.147   -3.609   -0.186
  C      6.065   -2.036   -1.323
  C      5.238   -4.129   -0.863
  C      2.921   -1.631   0.608
  C      4.040   -2.226   -0.090
  C      0.764   -0.484   1.955
  N      6.203   -3.376   -1.436
  O      -0.227   0.042   2.574
  H      1.904   -1.011   -1.199
  H      3.678   -2.112   2.577
  H      0.011   -0.006   -0.025
  H      1.791   -1.108   3.764
  H      4.964   -0.334   -0.612
  H      3.407   -4.271   0.252
  H      6.851   -1.449   -1.788
  H      5.367   -5.201   -0.967
  units Angstrom
}

dih_string = "1 9 10 5 75"
set optking fixed_dihedral = $dih_string

optimize('MP2/aug-cc-PVTZ')
--------------------------------------------------------------------------

    Molecular point group: c1
  Charge       = -1
  Multiplicity = 1
  Basis Set: AUG-CC-PVTZ
    Blend: AUG-CC-PVTZ
  Basis Set: (AUG-CC-PVTZ AUX)
    Blend: AUG-CC-PVTZ-JKFIT

    Orbital Energies (a.u.)
    -----------------------

    Doubly Occupied:

       1A    -20.284298     2A    -15.463006     3A    -11.173518
       4A    -11.173337     5A    -11.145790     6A    -11.127626
       7A    -11.127489     8A    -11.104535     9A    -11.093374
      10A    -11.093351    11A    -11.070405    12A    -11.053501
      13A    -11.053453    14A     -1.147733    15A     -1.117829
      16A     -1.018052    17A     -0.956861    18A     -0.930146
      19A     -0.860445    20A     -0.835125    21A     -0.749997
      22A     -0.734412    23A     -0.676542    24A     -0.646061
      25A     -0.594201    26A     -0.558076    27A     -0.547110
      28A     -0.502568    29A     -0.495239    30A     -0.488073
      31A     -0.476793    32A     -0.435561    33A     -0.430425
      34A     -0.417521    35A     -0.402757    36A     -0.367866
      37A     -0.355630    38A     -0.343975    39A     -0.315012
      40A     -0.281889    41A     -0.258788    42A     -0.247845
      43A     -0.203340    44A     -0.191584    45A     -0.103048

  @DF-RHF Final Energy:  -550.70854027338328

   => Energetics <=

    Nuclear Repulsion Energy =            685.6261106546438668
    One-Electron Energy =               -2121.3609290295034953
    Two-Electron Energy =                 885.0262781014762368
    DFT Exchange-Correlation Energy =       0.0000000000000000
    Empirical Dispersion Energy =           0.0000000000000000
    PCM Polarization Energy =               0.0000000000000000
    EFP Energy =                            0.0000000000000000
    Total Energy =                       -550.7085402733832780
  Basis Set: (AUG-CC-PVTZ AUX)
    Blend: AUG-CC-PVTZ-RI
    Molecular point group: c1

    Geometry (in Angstrom), charge = -1, multiplicity = 1:

       Center              X                  Y                   Z               Mass
    ------------   -----------------  -----------------  -----------------  -----------------
           C         -1.279272895891     0.724312714386    -0.569555522924    12.000000000000
           C         -0.286272895891     0.108312714386     1.544444477076    12.000000000000
           C         -2.357272895891     1.297312714386     0.103444477076    12.000000000000
           C         -1.364272895891     0.681312714386     2.218444477076    12.000000000000
           C          1.848727104109     0.343312714386    -1.124555522924    12.000000000000
           C          0.982727104109    -1.848687285614    -0.643555522924    12.000000000000
           C          2.900727104109    -0.275687285614    -1.780555522924    12.000000000000
           C          2.073727104109    -2.368687285614    -1.320555522924    12.000000000000
           C         -0.243272895891     0.129312714386     0.150444477076    12.000000000000
           C          0.875727104109    -0.465687285614    -0.547555522924    12.000000000000
           C         -2.400272895891     1.276312714386     1.497444477076    12.000000000000
           N          3.038727104109    -1.615687285614    -1.893555522924    14.003074004780
           O         -3.391272895891     1.802312714386     2.116444477076    15.994914619560
           H         -1.260272895891     0.749312714386    -1.656555522924     1.007825032070
           H          0.513727104109    -0.351687285614     2.119444477076     1.007825032070
           H         -3.153272895891     1.754312714386    -0.482555522924     1.007825032070
           H         -1.373272895891     0.652312714386     3.306444477076     1.007825032070
           H          1.799727104109     1.426312714386    -1.069555522924     1.007825032070
           H          0.242727104109    -2.510687285614    -0.205555522924     1.007825032070
           H          3.686727104109     0.311312714386    -2.245555522924     1.007825032070
           H          2.202727104109    -3.440687285614    -1.424555522924     1.007825032070

  Basis Set: AUG-CC-PVTZ
    Blend: AUG-CC-PVTZ
  Basis Set: (AUG-CC-PVTZ AUX)
    Blend: AUG-CC-PVTZ-JKFIT
  Basis Set: (AUG-CC-PVTZ AUX)
    Blend: AUG-CC-PVTZ-JKFIT
	 Reference Energy          =    -550.7085402733832780 [Eh]
	 Singles Energy            =      -0.0000000000000003 [Eh]
	 Same-Spin Energy          =      -0.6132040291579280 [Eh]
	 Opposite-Spin Energy      =      -1.8374305903058223 [Eh]
	 Correlation Energy        =      -2.4506346194637509 [Eh]
	 Total Energy              =    -553.1591748928469769 [Eh]

	 ================> DF-SCS-MP2 Energies <==================
	-----------------------------------------------------------
	 SCS Same-Spin Scale       =       0.3333333333333333 [-]
	 SCS Opposite-Spin Scale   =       1.2000000000000000 [-]
	 SCS Same-Spin Energy      =      -0.2044013430526427 [Eh]
	 SCS Opposite-Spin Energy  =      -2.2049167083669867 [Eh]
	 SCS Correlation Energy    =      -2.4093180514196297 [Eh]
	 SCS Total Energy          =    -553.1178583248029099 [Eh]
	-----------------------------------------------------------

  -Total Gradient:
     Atom            X                  Y                   Z
    ------   -----------------  -----------------  -----------------
       1        0.009191529062    -0.008706736107    -0.005315434478
       2        0.011653764788    -0.002350152008    -0.007730092424
       3       -0.021230241463     0.010732316143     0.034263184393
       4       -0.036620951708     0.019866710099     0.002741841689
       5       -0.006707954605     0.009112406605     0.007093259739
       6       -0.012299525877     0.000847420645     0.004528666141
       7       -0.004538062194     0.010631759988     0.003850353866
       8       -0.010658131615    -0.002699366575     0.005656355697
       9       -0.000827073002     0.000397877559     0.000563295316
      10        0.007937555359    -0.004498237628    -0.004857777571
      11        0.046848916432    -0.024722187139    -0.029776064927
      12        0.009496302859    -0.005411246746    -0.005894593397
      13        0.003419597050    -0.001881762972    -0.002059170402
      14       -0.002779712610     0.001807976392    -0.002751698979
      15        0.000323124895    -0.000470828156     0.004152878989
      16       -0.001661928268     0.001619912639    -0.008770752503
      17        0.005172244219    -0.003469390189     0.006233727847
      18        0.002646230729     0.005110106747    -0.001855561487
      19       -0.001263564408    -0.005553275257     0.001096367888
      20        0.001453504076     0.001040833369    -0.001051723666
      21        0.000444376273    -0.001404137410    -0.000117061713

*** Psi4 exiting successfully. Buy a developer a beer!
