                               Psi4 1.1 release

  ==> Input File <==

--------------------------------------------------------------------------

memory 5 Gb

molecule phepyrFOH_zwitterion {
  symmetry C1
  0 1
  C      1.885   -1.036   -0.112
  C      0.807   -0.463   0.561
  C      4.435   -1.715   -1.328
  C      4.717   -3.305   0.460
  C      1.800   -1.079   2.676
  C      5.509   -2.304   -1.979
  C      5.784   -3.854   -0.237
  C      2.921   -1.631   0.608
  C      4.038   -2.224   -0.095
  C      0.764   -0.484   1.955
  C      2.878   -1.652   2.002
  N      6.145   -3.344   -1.422
  O      -0.227   0.043   2.574
  F      3.866   -2.220   2.709
  H      1.904   -1.013   -1.200
  H      0.011   -0.007   -0.025
  H      3.924   -0.873   -1.784
  H      4.428   -3.723   1.420
  H      1.791   -1.109   3.764
  H      5.886   -1.975   -2.938
  H      6.367   -4.692   0.117
  H      6.931   -3.763   -1.918
  units Angstrom
}

dih_string = "1 8 9 3 30"
set optking fixed_dihedral = $dih_string

optimize('MP2/aug-cc-PVTZ')
--------------------------------------------------------------------------

    Molecular point group: c1
  Charge       = 0
  Multiplicity = 1
  Basis Set: AUG-CC-PVTZ
    Blend: AUG-CC-PVTZ
  Basis Set: (AUG-CC-PVTZ AUX)
    Blend: AUG-CC-PVTZ-JKFIT
  @DF-RHF Final Energy:  -650.10589227651440
    Total Energy =                       -650.1058922765143961
  Basis Set: (AUG-CC-PVTZ AUX)
    Blend: AUG-CC-PVTZ-RI
    Molecular point group: c1
  Basis Set: AUG-CC-PVTZ
    Blend: AUG-CC-PVTZ
  Basis Set: (AUG-CC-PVTZ AUX)
    Blend: AUG-CC-PVTZ-JKFIT
  Basis Set: (AUG-CC-PVTZ AUX)
    Blend: AUG-CC-PVTZ-JKFIT
	 Reference Energy          =    -650.1058922765143961 [Eh]
	 Singles Energy            =      -0.0000000000000003 [Eh]
	 Same-Spin Energy          =      -0.6794159845310070 [Eh]
	 Opposite-Spin Energy      =      -2.0277786737376413 [Eh]
	 Correlation Energy        =      -2.7071946582686488 [Eh]
	 Total Energy              =    -652.8130869347830867 [Eh]
	 SCS Total Energy          =    -652.7656986798432399 [Eh]
  @DF-RHF Final Energy:  -650.11739313875546
    Total Energy =                       -650.1173931387554603
  @DF-RHF Final Energy:  -650.12627017354237
    Total Energy =                       -650.1262701735424798
  @DF-RHF Final Energy:  -650.13217870639221
    Total Energy =                       -650.1321787063923239
  @DF-RHF Final Energy:  -650.13513764111553
    Total Energy =                       -650.1351376411155343
  @DF-RHF Final Energy:  -650.13634350611437
    Total Energy =                       -650.1363435061143718
  @DF-RHF Final Energy:  -650.13695732135625
    Total Energy =                       -650.1369573213562489
  @DF-RHF Final Energy:  -650.13728296116983
    Total Energy =                       -650.1372829611698307
  @DF-RHF Final Energy:  -650.13732555741637
    Total Energy =                       -650.1373255574162613
  @DF-RHF Final Energy:  -650.13731777298017
    Total Energy =                       -650.1373177729801682
  @DF-RHF Final Energy:  -650.13729546861134
    Total Energy =                       -650.1372954686114554
  @DF-RHF Final Energy:  -650.13729022196753
    Total Energy =                       -650.1372902219675325
  @DF-RHF Final Energy:  -650.13725457824023
    Total Energy =                       -650.1372545782403449
  @DF-RHF Final Energy:  -650.13722668470166
    Total Energy =                       -650.1372266847015453
  Charge       = 0
  Multiplicity = 1
  Basis Set: AUG-CC-PVTZ
    Blend: AUG-CC-PVTZ
  Basis Set: (AUG-CC-PVTZ AUX)
    Blend: AUG-CC-PVTZ-JKFIT

    Orbital Energies (a.u.)
    -----------------------

    Doubly Occupied:

       1A    -26.307401     2A    -20.480805     3A    -15.671106
       4A    -11.337520     5A    -11.335152     6A    -11.328525
       7A    -11.306537     8A    -11.286680     9A    -11.269628
      10A    -11.264483    11A    -11.244414    12A    -11.232069
      13A    -11.205496    14A    -11.203966    15A     -1.624116
      16A     -1.353507    17A     -1.316983    18A     -1.173307
      19A     -1.116405    20A     -1.095082    21A     -1.018601
      22A     -1.005758    23A     -0.914247    24A     -0.905013
      25A     -0.831528    26A     -0.821538    27A     -0.812596
      28A     -0.742967    29A     -0.719973    30A     -0.712041
      31A     -0.694061    32A     -0.677447    33A     -0.673464
      34A     -0.651265    35A     -0.630474    36A     -0.620037
      37A     -0.611923    38A     -0.598331    39A     -0.567859
      40A     -0.553298    41A     -0.530671    42A     -0.527479
      43A     -0.501415    44A     -0.479900    45A     -0.412021
      46A     -0.402645    47A     -0.378575    48A     -0.347715
      49A     -0.256763

  @DF-RHF Final Energy:  -650.13723251782403

   => Energetics <=

    Nuclear Repulsion Energy =            814.4609041701538672
    One-Electron Energy =               -2503.6906953595771483
    Two-Electron Energy =                1039.0925586715993632
    DFT Exchange-Correlation Energy =       0.0000000000000000
    Empirical Dispersion Energy =           0.0000000000000000
    PCM Polarization Energy =               0.0000000000000000
    EFP Energy =                            0.0000000000000000
    Total Energy =                       -650.1372325178240317
  Basis Set: (AUG-CC-PVTZ AUX)
    Blend: AUG-CC-PVTZ-RI
    Molecular point group: c1
  Basis Set: AUG-CC-PVTZ
    Blend: AUG-CC-PVTZ
  Basis Set: (AUG-CC-PVTZ AUX)
    Blend: AUG-CC-PVTZ-JKFIT
  Basis Set: (AUG-CC-PVTZ AUX)
    Blend: AUG-CC-PVTZ-JKFIT
	 Reference Energy          =    -650.1372325178240317 [Eh]
	 Singles Energy            =      -0.0000000000000004 [Eh]
	 Same-Spin Energy          =      -0.6727546702151713 [Eh]
	 Opposite-Spin Energy      =      -2.0231259117842182 [Eh]
	 Correlation Energy        =      -2.6958805819993898 [Eh]
	 Total Energy              =    -652.8331130998234357 [Eh]

	 ================> DF-SCS-MP2 Energies <==================
	-----------------------------------------------------------
	 SCS Same-Spin Scale       =       0.3333333333333333 [-]
	 SCS Opposite-Spin Scale   =       1.2000000000000000 [-]
	 SCS Same-Spin Energy      =      -0.2242515567383904 [Eh]
	 SCS Opposite-Spin Energy  =      -2.4277510941410618 [Eh]
	 SCS Correlation Energy    =      -2.6520026508794525 [Eh]
	 SCS Total Energy          =    -652.7892351687034989 [Eh]
	-----------------------------------------------------------

  -Total Gradient:
     Atom            X                  Y                   Z
    ------   -----------------  -----------------  -----------------
       1       -0.002970048492    -0.004930857179     0.000000477952
       2       -0.000008629186     0.000019993176    -0.000067110652
       3        0.003811701360     0.003576277406     0.002468719771
       4        0.000019191108     0.000009805536     0.000004112618
       5       -0.000014413344     0.000032108393     0.000023689164
       6        0.000012051355    -0.000004453303     0.000002678945
       7       -0.000008565885    -0.000010943560     0.000018342039
       8        0.006566228333     0.009374494679     0.001284487256
       9       -0.007395901020    -0.008017160124    -0.003776995280
      10       -0.000003170104    -0.000023872125     0.000082924986
      11       -0.000022647431    -0.000051176333    -0.000037279919
      12        0.000013686888     0.000014157303    -0.000047733725
      13       -0.000019570958     0.000017156873     0.000008229265
      14        0.000019674514     0.000006333066     0.000026425258
      15       -0.000006722907     0.000004928426    -0.000003649917
      16       -0.000002733539     0.000005918327    -0.000009635566
      17        0.000006264594    -0.000001023041    -0.000004549173
      18       -0.000004484826    -0.000013956543     0.000030486247
      19       -0.000005661544    -0.000002606257     0.000013239898
      20        0.000004427394     0.000001086561    -0.000015221289
      21        0.000002553020    -0.000004914527     0.000007317584
      22        0.000006770665    -0.000001296755    -0.000008955477

  **** Optimization is complete! (in 15 steps) ****
    Final optimized geometry and variables:
    Molecular point group: c1

    Geometry (in Angstrom), charge = 0, multiplicity = 1:

    C           -1.300818063948     0.867577732721    -0.742010808973
    C           -2.395498243354     1.382674402859    -0.131547832574
    C            1.207169601925     0.051461892462    -2.006768052974
    C            1.588538309678    -1.469962390604    -0.191598438312
    C           -1.493047074654     0.683603358075     2.028128449854
    C            2.233035572962    -0.524036570167    -2.684404706317
    C            2.599985324306    -2.026720147083    -0.907268157076
    C           -0.241780157560     0.225488150974    -0.029002867176
    C            0.797311113283    -0.404714457811    -0.717540872062
    C           -2.563541454103     1.340294456421     1.308993407020
    C           -0.436655279910     0.152703182392     1.376999514951
    N            2.919101434179    -1.564323787021    -2.144000159067
    O           -3.548810941853     1.824426394806     1.882187273986
    F            0.545779114992    -0.418666623930     2.120198651665
    H           -1.249433752840     0.890892007075    -1.820729882950
    H           -3.194671050881     1.823940831625    -0.707331593770
    H            0.723566104425     0.899438007684    -2.461964475963
    H            1.373548030077    -1.882721211538     0.776849348413
    H           -1.544230616810     0.636150532858     3.103845183126
    H            2.564599941093    -0.176359246495    -3.648696009871
    H            3.183997350589    -2.853806401015    -0.538938179366
    H            3.680497084100    -1.979501684917    -2.651811342446

*** Psi4 exiting successfully. Buy a developer a beer!
