                              Psi4 1.0.0 Driver

  ==> Input File <==

--------------------------------------------------------------------------

memory 1000 mb

molecule butane {
  symmetry C1
  0 1
  H      1.604   0.760   -8.260
  H      1.745   2.388   -8.880
  H      2.043   1.024   -9.930
  C      2.142   1.395   -8.932
  H      4.169   2.051   -9.210
  H      3.731   1.788   -7.539
  C      3.631   1.416   -8.537
  H      3.682   -0.566   -9.364
  H      5.243   0.033   -8.859
  C      4.203   -0.012   -8.612
  H      4.426   -1.699   -7.302
  H      2.989   -0.753   -7.002
  H      4.550   -0.154   -6.497
  C      4.029   -0.708   -7.250
  units Angstrom
}

dih_string = "4 7 10 14 270"
set optking fixed_dihedral = $dih_string

optimize('B3LYP/cc-PVDZ')
--------------------------------------------------------------------------

    Molecular point group: c1
  Charge       = 0
  Multiplicity = 1
  Basis Set: CC-PVDZ
   => B3LYP Composite Functional <=
  Basis Set:
  @DF-RKS Final Energy:  -158.44610013668543
    Total Energy =                       -158.4461001366854305
    Molecular point group: c1
  Basis Set: CC-PVDZ
  Basis Set:
   => B3LYP Composite Functional <=
  Basis Set: CC-PVDZ
   => B3LYP Composite Functional <=
  Basis Set:
  @DF-RKS Final Energy:  -158.45197538316052
    Total Energy =                       -158.4519753831605158
  Basis Set: CC-PVDZ
  Basis Set:
   => B3LYP Composite Functional <=
  Basis Set: CC-PVDZ
   => B3LYP Composite Functional <=
  Basis Set:
  @DF-RKS Final Energy:  -158.45472901424381
    Total Energy =                       -158.4547290142438101
  Basis Set: CC-PVDZ
  Basis Set:
  @DF-RKS Final Energy:  -158.45559766328589
    Total Energy =                       -158.4555976632858858
   => B3LYP Composite Functional <=
  Basis Set:
  @DF-RKS Final Energy:  -158.45582973688735
    Total Energy =                       -158.4558297368873525
  Basis Set: CC-PVDZ
  Basis Set:
   => B3LYP Composite Functional <=
  Basis Set: CC-PVDZ
   => B3LYP Composite Functional <=
  Basis Set:
  @DF-RKS Final Energy:  -158.45586480500890
    Total Energy =                       -158.4558648050089005
  Basis Set: CC-PVDZ
  Basis Set:
   => B3LYP Composite Functional <=
  Charge       = 0
  Multiplicity = 1
  Basis Set: CC-PVDZ
   => B3LYP Composite Functional <=
  Basis Set:

    Orbital Energies (a.u.)
    -----------------------

    Doubly Occupied:

       1A    -10.180178     2A    -10.180011     3A    -10.175882
       4A    -10.175881     5A     -0.789615     6A     -0.718080
       7A     -0.632510     8A     -0.567161     9A     -0.452389
      10A     -0.445317    11A     -0.415771    12A     -0.384357
      13A     -0.371689    14A     -0.359243    15A     -0.326670
      16A     -0.320057    17A     -0.314994

  @DF-RKS Final Energy:  -158.45586415578342

   => Energetics <=

    Nuclear Repulsion Energy =            130.9903922347094749
    One-Electron Energy =                -470.4753042028493155
    Two-Electron Energy =                 201.6118108399383004
    DFT Exchange-Correlation Energy =     -20.5827630275818656
    Empirical Dispersion Energy =           0.0000000000000000
    PCM Polarization Energy =               0.0000000000000000
    EFP Energy =                            0.0000000000000000
    Total Energy =                       -158.4558641557834164
    Molecular point group: c1
  Basis Set: CC-PVDZ
  Basis Set:
   => B3LYP Composite Functional <=

  -Total Gradient:
     Atom            X                  Y                   Z
    ------   -----------------  -----------------  -----------------
       1        0.000008553160     0.000002807126     0.000001279647
       2        0.000000817233     0.000006627815    -0.000005241135
       3       -0.000017701019    -0.000000959516    -0.000009723499
       4        0.000724149609     0.000224343760    -0.002423799724
       5       -0.000008204556    -0.000012648739     0.000017766940
       6       -0.000000293640     0.000006074191     0.000021978903
       7       -0.000107755790     0.000097149151     0.003650185412
       8       -0.000013591473    -0.000011824812    -0.000014270111
       9       -0.000023506796    -0.000000703686     0.000000673500
      10       -0.002766610110    -0.001335898687    -0.001976980068
      11        0.000008233876    -0.000003142994     0.000000091153
      12        0.000003586216     0.000002228066    -0.000008557220
      13        0.000001363693    -0.000006342310     0.000018919683
      14        0.002203447598     0.001037670082     0.000720404365

  **** Optimization is complete! (in 7 steps) ****
    Final optimized geometry and variables:
    Molecular point group: c1

    Geometry (in Angstrom), charge = 0, multiplicity = 1:

    H           -1.988547372705     0.263382157705    -0.008122958219
    H           -1.795981308665     1.902452539542    -0.668494394052
    H           -1.492313717904     0.484573333333    -1.701637428846
    C           -1.372143063963     0.884813904601    -0.680568227565
    H            0.664689791893     1.513962824584    -0.973316788954
    H            0.217423366667     1.365552626751     0.724996070267
    C            0.101936307150     0.883049544209    -0.262667468396
    H            0.285751780071    -1.148786756023    -1.017971127508
    H            1.806269994006    -0.449483051302    -0.465393954171
    C            0.731447553233    -0.524032615073    -0.222569550806
    H            1.025708303999    -2.234282630001     1.116992970033
    H           -0.465024536079    -1.320376700582     1.436704641539
    H            1.108223117610    -0.650029855651     1.925270556607
    C            0.591989211161    -1.220899831797     1.134812310151

*** Psi4 exiting successfully. Buy a developer a beer!
