                              Psi4 1.0.0 Driver

  ==> Input File <==

--------------------------------------------------------------------------

memory 1000 mb

molecule butane {
  symmetry C1
  0 1
  H      1.604   0.760   -8.260
  H      1.745   2.388   -8.880
  H      2.043   1.024   -9.930
  C      2.142   1.395   -8.932
  H      4.169   2.051   -9.210
  H      3.731   1.788   -7.539
  C      3.631   1.416   -8.537
  H      4.589   -0.190   -9.594
  H      4.989   -0.119   -7.895
  C      4.203   -0.012   -8.612
  H      3.486   -2.021   -8.359
  H      2.301   -0.922   -9.024
  H      2.701   -0.852   -7.325
  C      3.088   -1.029   -8.307
  units Angstrom
}

dih_string = "4 7 10 14 330"
set optking fixed_dihedral = $dih_string

optimize('MP2/6-31G(d)')
--------------------------------------------------------------------------

    Molecular point group: c1
  Charge       = 0
  Multiplicity = 1
  Basis Set: 6-31G(D)
  Basis Set:
  @DF-RHF Final Energy:  -157.28093185872115
    Total Energy =                       -157.2809318587210328
  Basis Set:
    Molecular point group: c1
  Basis Set: 6-31G(D)
  Basis Set:
  Basis Set:
	 Reference Energy          =    -157.2809318587211465 [Eh]
	 Singles Energy            =      -0.0000000000000000 [Eh]
	 Same-Spin Energy          =      -0.1254413306003166 [Eh]
	 Opposite-Spin Energy      =      -0.4215326808968617 [Eh]
	 Correlation Energy        =      -0.5469740114971784 [Eh]
	 Total Energy              =    -157.8279058702183306 [Eh]
	 SCS Total Energy          =    -157.8285848526641644 [Eh]
  Basis Set: 6-31G(D)
  Basis Set:
  @DF-RHF Final Energy:  -157.28846493988368
    Total Energy =                       -157.2884649398836814
  Basis Set:
  Basis Set: 6-31G(D)
  Basis Set:
  @DF-RHF Final Energy:  -157.29057763533427
    Total Energy =                       -157.2905776353343015
  @DF-RHF Final Energy:  -157.29165237759094
    Total Energy =                       -157.2916523775911060
  @DF-RHF Final Energy:  -157.29208614078871
    Total Energy =                       -157.2920861407888822
  @DF-RHF Final Energy:  -157.29216443937969
    Total Energy =                       -157.2921644393796896
  @DF-RHF Final Energy:  -157.29220108312191
    Total Energy =                       -157.2922010831220234
  @DF-RHF Final Energy:  -157.29213901407425
    Total Energy =                       -157.2921390140742517
  @DF-RHF Final Energy:  -157.29215670832110
    Total Energy =                       -157.2921567083208743
  @DF-RHF Final Energy:  -157.29211250383290
    Total Energy =                       -157.2921125038328114
  @DF-RHF Final Energy:  -157.29212661977945
    Total Energy =                       -157.2921266197796228
	 Singles Energy            =      -0.0000000000000000 [Eh]
	 Same-Spin Energy          =      -0.1245768245534167 [Eh]
	 Opposite-Spin Energy      =      -0.4226784556501689 [Eh]
	 Correlation Energy        =      -0.5472552802035856 [Eh]
	 Total Energy              =    -157.8393818999830387 [Eh]
	 SCS Total Energy          =    -157.8408663747441381 [Eh]
  Charge       = 0
  Multiplicity = 1
  Basis Set: 6-31G(D)
  Basis Set:

    Orbital Energies (a.u.)
    -----------------------

    Doubly Occupied:

       1A    -11.216199     2A    -11.215636     3A    -11.209688
       4A    -11.209679     5A     -1.068165     6A     -0.973800
       7A     -0.876543     8A     -0.768705     9A     -0.630511
      10A     -0.615945    11A     -0.567479    12A     -0.537554
      13A     -0.525793    14A     -0.506710    15A     -0.463242
      16A     -0.458379    17A     -0.447298

  @DF-RHF Final Energy:  -157.29213281362550

   => Energetics <=

    Nuclear Repulsion Energy =            133.0069477465217744
    One-Electron Energy =                -474.0155094760259544
    Two-Electron Energy =                 183.7164289158786232
    DFT Exchange-Correlation Energy =       0.0000000000000000
    Empirical Dispersion Energy =           0.0000000000000000
    PCM Polarization Energy =               0.0000000000000000
    EFP Energy =                            0.0000000000000000
    Total Energy =                       -157.2921328136255852
  Basis Set:
    Molecular point group: c1
  Basis Set: 6-31G(D)
  Basis Set:
  Basis Set:
	 Reference Energy          =    -157.2921328136254999 [Eh]
	 Singles Energy            =      -0.0000000000000000 [Eh]
	 Same-Spin Energy          =      -0.1245749932958139 [Eh]
	 Opposite-Spin Energy      =      -0.4226791092492475 [Eh]
	 Correlation Energy        =      -0.5472541025450613 [Eh]
	 Total Energy              =    -157.8393869161705538 [Eh]

	 ================> DF-SCS-MP2 Energies <==================
	-----------------------------------------------------------
	 SCS Same-Spin Scale       =       0.3333333333333333 [-]
	 SCS Opposite-Spin Scale   =       1.2000000000000000 [-]
	 SCS Same-Spin Energy      =      -0.0415249977652713 [Eh]
	 SCS Opposite-Spin Energy  =      -0.5072149310990969 [Eh]
	 SCS Correlation Energy    =      -0.5487399288643682 [Eh]
	 SCS Total Energy          =    -157.8408727424898643 [Eh]
	-----------------------------------------------------------

  -Total Gradient:
     Atom            X                  Y                   Z
    ------   -----------------  -----------------  -----------------
       1        0.000006583013     0.000003820765    -0.000009953801
       2       -0.000006000287    -0.000010216256     0.000001681294
       3       -0.000008831604     0.000005328758     0.000008336414
       4       -0.001015531827    -0.000509447730     0.004541637844
       5       -0.000007662483     0.000000696914    -0.000002685452
       6        0.000022245989    -0.000006267417    -0.000011368615
       7        0.000921742889     0.000530632133    -0.008378536712
       8        0.000011882667     0.000020220789     0.000010558667
       9       -0.000004839656    -0.000005977635     0.000002810268
      10        0.001330609558     0.000393419228     0.008331380708
      11       -0.000011477303     0.000003046377    -0.000001417936
      12        0.000007476827     0.000002044392     0.000009282574
      13       -0.000002898753    -0.000010004047    -0.000007820854
      14       -0.001243299030    -0.000417296269    -0.004493904398

  **** Optimization is complete! (in 12 steps) ****
    Final optimized geometry and variables:
    Molecular point group: c1

    Geometry (in Angstrom), charge = 0, multiplicity = 1:

    H           -1.750576972035     0.537538294058     0.403400238899
    H           -1.463952018709     2.119069514611    -0.324132950197
    H           -1.369334424994     0.663278476994    -1.318058985381
    C           -1.143429164431     1.073465507695    -0.328639558970
    H            0.918544790092     1.609204864016    -0.682444392768
    H            0.491008570108     1.396022763493     1.000056160898
    C            0.343789755731     0.972749443116    -0.001409701738
    H            1.293239590503    -0.663868918344    -1.037733222198
    H            1.807747384330    -0.490491957931     0.624873829968
    C            0.927536995240    -0.451069981412    -0.025435712998
    H            0.458564170337    -2.531622985593     0.345361019424
    H           -0.882010613593    -1.617800003353    -0.347810266819
    H           -0.460413168148    -1.414102591304     1.356697217892
    C           -0.047508196758    -1.562157802641     0.353787741785

*** Psi4 exiting successfully. Buy a developer a beer!
