                               Psi4 1.1 release

  ==> Input File <==

--------------------------------------------------------------------------

memory 1000 mb

molecule butane {
  symmetry C1
  0 1
  H      1.604   0.760   -8.260
  H      1.745   2.388   -8.880
  H      2.043   1.024   -9.930
  C      2.142   1.395   -8.932
  H      4.169   2.051   -9.210
  H      3.731   1.788   -7.539
  C      3.631   1.416   -8.537
  H      3.665   -0.647   -7.940
  H      4.104   -0.384   -9.610
  C      4.203   -0.012   -8.612
  H      5.864   0.801   -7.520
  H      6.289   0.166   -9.091
  H      5.955   -0.926   -7.769
  C      5.691   0.009   -8.218
  units Angstrom
}

dih_string = "7 10 14 13 150"
set optking fixed_dihedral = $dih_string

optimize('MP2/aug-cc-pvtz')
--------------------------------------------------------------------------

    Molecular point group: c1
  Charge       = 0
  Multiplicity = 1
  Basis Set: AUG-CC-PVTZ
    Blend: AUG-CC-PVTZ
  Basis Set: (AUG-CC-PVTZ AUX)
    Blend: AUG-CC-PVTZ-JKFIT
  @DF-RHF Final Energy:  -157.35000908865703
    Total Energy =                       -157.3500090886570320
  Basis Set: (AUG-CC-PVTZ AUX)
    Blend: AUG-CC-PVTZ-RI
    Molecular point group: c1
  Basis Set: AUG-CC-PVTZ
    Blend: AUG-CC-PVTZ
  Basis Set: (AUG-CC-PVTZ AUX)
    Blend: AUG-CC-PVTZ-JKFIT
  Basis Set: (AUG-CC-PVTZ AUX)
    Blend: AUG-CC-PVTZ-JKFIT
	 Reference Energy          =    -157.3500090886570320 [Eh]
	 Singles Energy            =      -0.0000000000000000 [Eh]
	 Same-Spin Energy          =      -0.1654334194867882 [Eh]
	 Opposite-Spin Energy      =      -0.6391165953613996 [Eh]
	 Correlation Energy        =      -0.8045500148481878 [Eh]
	 Total Energy              =    -158.1545591035052212 [Eh]
	 SCS Total Energy          =    -158.1720934762529680 [Eh]
  @DF-RHF Final Energy:  -157.35277151565842
    Total Energy =                       -157.3527715156584179
  @DF-RHF Final Energy:  -157.35364424748329
    Total Energy =                       -157.3536442474832882
  @DF-RHF Final Energy:  -157.35396752476947
    Total Energy =                       -157.3539675247694731
  @DF-RHF Final Energy:  -157.35401080343149
    Total Energy =                       -157.3540108034314926
  @DF-RHF Final Energy:  -157.35401556630327
    Total Energy =                       -157.3540155663032749
  Charge       = 0
  Multiplicity = 1
  Basis Set: AUG-CC-PVTZ
    Blend: AUG-CC-PVTZ
  Basis Set: (AUG-CC-PVTZ AUX)
    Blend: AUG-CC-PVTZ-JKFIT

    Orbital Energies (a.u.)
    -----------------------

    Doubly Occupied:

       1A    -11.211530     2A    -11.210833     3A    -11.205966
       4A    -11.205782     5A     -1.073689     6A     -0.981369
       7A     -0.861416     8A     -0.788479     9A     -0.640236
      10A     -0.584322    11A     -0.577252    12A     -0.569529
      13A     -0.512277    14A     -0.496146    15A     -0.470327
      16A     -0.459852    17A     -0.455538

  @DF-RHF Final Energy:  -157.35401407514229

   => Energetics <=

    Nuclear Repulsion Energy =            131.4395550412471323
    One-Electron Energy =                -470.9780544844077212
    Two-Electron Energy =                 182.1844853680183292
    DFT Exchange-Correlation Energy =       0.0000000000000000
    Empirical Dispersion Energy =           0.0000000000000000
    PCM Polarization Energy =               0.0000000000000000
    EFP Energy =                            0.0000000000000000
    Total Energy =                       -157.3540140751422882
  Basis Set: (AUG-CC-PVTZ AUX)
    Blend: AUG-CC-PVTZ-RI
    Molecular point group: c1
  Basis Set: AUG-CC-PVTZ
    Blend: AUG-CC-PVTZ
  Basis Set: (AUG-CC-PVTZ AUX)
    Blend: AUG-CC-PVTZ-JKFIT
  Basis Set: (AUG-CC-PVTZ AUX)
    Blend: AUG-CC-PVTZ-JKFIT
	 Reference Energy          =    -157.3540140751422882 [Eh]
	 Singles Energy            =      -0.0000000000000000 [Eh]
	 Same-Spin Energy          =      -0.1654679872447843 [Eh]
	 Opposite-Spin Energy      =      -0.6395240948047972 [Eh]
	 Correlation Energy        =      -0.8049920820495815 [Eh]
	 Total Energy              =    -158.1590061571918682 [Eh]

	 ================> DF-SCS-MP2 Energies <==================
	-----------------------------------------------------------
	 SCS Same-Spin Scale       =       0.3333333333333333 [-]
	 SCS Opposite-Spin Scale   =       1.2000000000000000 [-]
	 SCS Same-Spin Energy      =      -0.0551559957482614 [Eh]
	 SCS Opposite-Spin Energy  =      -0.7674289137657566 [Eh]
	 SCS Correlation Energy    =      -0.8225849095140181 [Eh]
	 SCS Total Energy          =    -158.1765989846562945 [Eh]
	-----------------------------------------------------------

  -Total Gradient:
     Atom            X                  Y                   Z
    ------   -----------------  -----------------  -----------------
       1        0.000000413222    -0.000000628557    -0.000000260390
       2        0.000001752986     0.000001899879    -0.000011294248
       3       -0.000026177695    -0.000008087534    -0.000014315751
       4        0.000069960788    -0.000001322127     0.000001347089
       5        0.000003680262    -0.000006947390     0.000009555241
       6        0.000008509583     0.000029560121     0.000005833648
       7       -0.000647523829    -0.000388825040     0.002445272306
       8       -0.000026226427     0.000045694094    -0.000010820203
       9        0.000009308955    -0.000057619674     0.000000014191
      10        0.000647878506     0.000829727736    -0.002522239525
      11        0.000025070687    -0.000009468424    -0.000014454480
      12        0.000010405865    -0.000018058913    -0.000016023950
      13       -0.000728651511     0.001227516524     0.003037664405
      14        0.000651598604    -0.001643440698    -0.002910278331

  **** Optimization is complete! (in 7 steps) ****
    Final optimized geometry and variables:
    Molecular point group: c1

    Geometry (in Angstrom), charge = 0, multiplicity = 1:

    H           -2.353597455510     0.059247320720     0.281734822081
    H           -2.191292489747     1.710852028080    -0.304708065749
    H           -1.890708720232     0.356521431533    -1.387849280560
    C           -1.768998784793     0.710546793085    -0.365781432389
    H            0.262964171639     1.361614284279    -0.610319719030
    H           -0.198891085637     1.080561345700     1.052199044820
    C           -0.307279819676     0.693794834280     0.038088728705
    H           -0.253263144290    -1.333543677220     0.674968566984
    H            0.146306950605    -1.121440880784    -1.010180018833
    C            0.298065504359    -0.696152332567    -0.017727216937
    H            1.992568658346     0.070065314251     1.072882122501
    H            2.405149925386    -0.522812155160    -0.526002995085
    H            2.077557065408    -1.650751362613     0.795430657690
    C            1.778482367781    -0.709055490916     0.342215445623

*** Psi4 exiting successfully. Buy a developer a beer!
