                               Psi4 1.1 release

  ==> Input File <==

--------------------------------------------------------------------------

memory 5 Gb

molecule phepyrOH_zwitterion {
  symmetry C1
  0 1
  C      1.885   -1.036   -0.112
  C      2.878   -1.652   2.002
  C      0.807   -0.463   0.561
  C      1.800   -1.079   2.676
  C      3.950   -2.489   -1.454
  C      5.207   -2.536   0.601
  C      5.038   -3.060   -2.097
  C      6.264   -3.107   -0.095
  C      2.921   -1.631   0.608
  C      4.040   -2.226   -0.090
  C      0.764   -0.484   1.955
  N      6.150   -3.349   -1.408
  O      -0.227   0.042   2.574
  H      1.904   -1.011   -1.199
  H      3.678   -2.112   2.577
  H      0.011   -0.006   -0.025
  H      1.791   -1.108   3.764
  H      3.051   -2.257   -2.018
  H      5.305   -2.343   1.665
  H      5.058   -3.298   -3.152
  H      7.207   -3.380   0.358
  H      6.938   -3.770   -1.900
  units Angstrom
}

dih_string = "1 9 10 5 345"
set optking fixed_dihedral = $dih_string

optimize('MP2/aug-cc-PVTZ')
--------------------------------------------------------------------------

    Molecular point group: c1
  Charge       = 0
  Multiplicity = 1
  Basis Set: AUG-CC-PVTZ
    Blend: AUG-CC-PVTZ
  Basis Set: (AUG-CC-PVTZ AUX)
    Blend: AUG-CC-PVTZ-JKFIT
  @DF-RHF Final Energy:  -551.21623481301310
    Total Energy =                       -551.2162348130131022
  Basis Set: (AUG-CC-PVTZ AUX)
    Blend: AUG-CC-PVTZ-RI
    Molecular point group: c1
  Basis Set: AUG-CC-PVTZ
    Blend: AUG-CC-PVTZ
  Basis Set: (AUG-CC-PVTZ AUX)
    Blend: AUG-CC-PVTZ-JKFIT
  Basis Set: (AUG-CC-PVTZ AUX)
    Blend: AUG-CC-PVTZ-JKFIT
	 Reference Energy          =    -551.2162348130131022 [Eh]
	 Singles Energy            =      -0.0000000000000002 [Eh]
	 Same-Spin Energy          =      -0.6065172844459285 [Eh]
	 Opposite-Spin Energy      =      -1.8410906333095736 [Eh]
	 Correlation Energy        =      -2.4476079177555023 [Eh]
	 Total Energy              =    -553.6638427307685788 [Eh]
	 SCS Total Energy          =    -553.6277160011331944 [Eh]
  @DF-RHF Final Energy:  -551.22871580040567
    Total Energy =                       -551.2287158004056664
  @DF-RHF Final Energy:  -551.23844428495181
    Total Energy =                       -551.2384442849518109
  @DF-RHF Final Energy:  -551.24499784126169
    Total Energy =                       -551.2449978412616929
  @DF-RHF Final Energy:  -551.24794032846967
    Total Energy =                       -551.2479403284696673
  @DF-RHF Final Energy:  -551.24846933365279
    Total Energy =                       -551.2484693336527926
  @DF-RHF Final Energy:  -551.24852834076137
    Total Energy =                       -551.2485283407613679
  @DF-RHF Final Energy:  -551.24851542748320
    Total Energy =                       -551.2485154274831984
  @DF-RHF Final Energy:  -551.24852262581589
    Total Energy =                       -551.2485226258158946
  Charge       = 0
  Multiplicity = 1
  Basis Set: AUG-CC-PVTZ
    Blend: AUG-CC-PVTZ
  Basis Set: (AUG-CC-PVTZ AUX)
    Blend: AUG-CC-PVTZ-JKFIT

    Orbital Energies (a.u.)
    -----------------------

    Doubly Occupied:

       1A    -20.480621     2A    -15.660221     3A    -11.329389
       4A    -11.329187     5A    -11.294577     6A    -11.281306
       7A    -11.262073     8A    -11.261908     9A    -11.237685
      10A    -11.237476    11A    -11.224841    12A    -11.203988
      13A    -11.203678    14A     -1.344003    15A     -1.314756
      16A     -1.166394    17A     -1.107017    18A     -1.088737
      19A     -1.013347    20A     -0.996735    21A     -0.906086
      22A     -0.895134    23A     -0.814384    24A     -0.812195
      25A     -0.796678    26A     -0.718402    27A     -0.708562
      28A     -0.682466    29A     -0.655593    30A     -0.625059
      31A     -0.623795    32A     -0.618800    33A     -0.612224
      34A     -0.584974    35A     -0.557158    36A     -0.548359
      37A     -0.527197    38A     -0.522781    39A     -0.485427
      40A     -0.477967    41A     -0.408670    42A     -0.396415
      43A     -0.373391    44A     -0.346194    45A     -0.249388

  @DF-RHF Final Energy:  -551.24850228603634

   => Energetics <=

    Nuclear Repulsion Energy =            698.0313033386901225
    One-Electron Energy =               -2132.5891309204830577
    Two-Electron Energy =                 883.3093252957565937
    DFT Exchange-Correlation Energy =       0.0000000000000000
    Empirical Dispersion Energy =           0.0000000000000000
    PCM Polarization Energy =               0.0000000000000000
    EFP Energy =                            0.0000000000000000
    Total Energy =                       -551.2485022860363415
  Basis Set: (AUG-CC-PVTZ AUX)
    Blend: AUG-CC-PVTZ-RI
    Molecular point group: c1
  Basis Set: AUG-CC-PVTZ
    Blend: AUG-CC-PVTZ
  Basis Set: (AUG-CC-PVTZ AUX)
    Blend: AUG-CC-PVTZ-JKFIT
  Basis Set: (AUG-CC-PVTZ AUX)
    Blend: AUG-CC-PVTZ-JKFIT
	 Reference Energy          =    -551.2485022860363415 [Eh]
	 Singles Energy            =      -0.0000000000000001 [Eh]
	 Same-Spin Energy          =      -0.5988895531138509 [Eh]
	 Opposite-Spin Energy      =      -1.8350365517039886 [Eh]
	 Correlation Energy        =      -2.4339261048178393 [Eh]
	 Total Energy              =    -553.6824283908541702 [Eh]

	 ================> DF-SCS-MP2 Energies <==================
	-----------------------------------------------------------
	 SCS Same-Spin Scale       =       0.3333333333333333 [-]
	 SCS Opposite-Spin Scale   =       1.2000000000000000 [-]
	 SCS Same-Spin Energy      =      -0.1996298510379503 [Eh]
	 SCS Opposite-Spin Energy  =      -2.2020438620447864 [Eh]
	 SCS Correlation Energy    =      -2.4016737130827366 [Eh]
	 SCS Total Energy          =    -553.6501759991190283 [Eh]
	-----------------------------------------------------------

  -Total Gradient:
     Atom            X                  Y                   Z
    ------   -----------------  -----------------  -----------------
       1        0.001468345576     0.002794658161     0.000119023417
       2       -0.000003203278    -0.000039634848     0.000004169153
       3        0.000016464216     0.000038028626     0.000020366995
       4       -0.000012904866     0.000033703906    -0.000012070422
       5       -0.001098009403    -0.002971998956     0.000563370681
       6        0.000026148092     0.000032007155     0.000003370023
       7       -0.000026642557     0.000020266185    -0.000007750711
       8       -0.000009697433     0.000005420875     0.000038826814
       9       -0.002820269258    -0.005857311481     0.000116893929
      10        0.002477682615     0.006028461819    -0.000852550085
      11       -0.000046427006    -0.000095445450     0.000003239112
      12       -0.000005878198    -0.000011017846    -0.000006656850
      13        0.000017377520     0.000039634130     0.000000104416
      14       -0.000010389405     0.000003780426    -0.000002023800
      15        0.000020250848    -0.000003739728     0.000006461764
      16        0.000002344114    -0.000010322626    -0.000013828611
      17        0.000015911609    -0.000009812627    -0.000001794173
      18       -0.000005573550     0.000000974282     0.000009141983
      19       -0.000021011549     0.000001236694     0.000019486212
      20        0.000012200496     0.000002397916    -0.000000707959
      21        0.000006262929     0.000000219414    -0.000009763927
      22       -0.000002981518    -0.000001506031     0.000002692049

  **** Optimization is complete! (in 10 steps) ****
    Final optimized geometry and variables:
    Molecular point group: c1

    Geometry (in Angstrom), charge = 0, multiplicity = 1:

    C           -1.347946710856     0.705666479467    -0.546320955361
    C           -0.309915569848     0.160115003011     1.577807889233
    C           -2.391279802125     1.283658818364     0.100991219179
    C           -1.355767778301     0.714620981575     2.241460310341
    C            0.821334366814    -0.707735332544    -1.925503645203
    C            2.043318915726    -0.821706997341     0.134560946756
    C            1.882102259253    -1.263934596101    -2.561891594921
    C            3.085631457024    -1.369869757359    -0.538372352014
    C           -0.260132386719     0.107595217809     0.154390557269
    C            0.834133210432    -0.433429986568    -0.522276315405
    C           -2.476609296882     1.319639236115     1.548076426067
    N            3.012975718646    -1.589433286779    -1.878965865141
    O           -3.432401938637     1.833233249733     2.147398631292
    H           -1.338687333353     0.730065936783    -1.625834583545
    H            0.485488825047    -0.283906778075     2.157375548046
    H           -3.195727922320     1.749930021378    -0.448531223576
    H           -1.387864345129     0.720073773901     3.321065649218
    H           -0.050267992332    -0.494650743329    -2.520071600829
    H            2.172110285555    -0.662565283651     1.191163786019
    H            1.878146262512    -1.483808078472    -3.616816269119
    H            4.007685243804    -1.649067083649    -0.055526955411
    H            3.790965320396    -2.000552508780    -2.363064872657

*** Psi4 exiting successfully. Buy a developer a beer!
