                               Psi4 1.1 release

  ==> Input File <==

--------------------------------------------------------------------------

memory 5 Gb

molecule phepyrFOH_neutral {
  symmetry C1
  0 1
  C      1.885   -1.036   -0.112
  C      0.807   -0.463   0.561
  C      3.825   -3.269   -0.988
  C      5.328   -1.753   0.119
  C      1.800   -1.079   2.676
  C      4.927   -3.802   -1.637
  C      6.363   -2.354   -0.579
  C      2.921   -1.631   0.608
  C      4.038   -2.225   -0.095
  C      0.764   -0.484   1.955
  C      2.878   -1.652   2.002
  N      6.195   -3.370   -1.455
  O      -0.289   0.076   2.612
  F      3.866   -2.220   2.709
  H      1.904   -1.012   -1.199
  H      0.002   -0.002   -0.006
  H      2.833   -3.663   -1.183
  H      5.532   -0.940   0.809
  H      1.772   -1.099   3.762
  H      4.814   -4.616   -2.345
  H      7.387   -2.023   -0.446
  H      0.019   0.788   3.195
  units Angstrom
}

dih_string = "2 10 13 22 240"
set optking fixed_dihedral = $dih_string

optimize('MP2/aug-cc-PVTZ')
--------------------------------------------------------------------------

    Molecular point group: c1
  Charge       = 0
  Multiplicity = 1
  Basis Set: AUG-CC-PVTZ
    Blend: AUG-CC-PVTZ
  Basis Set: (AUG-CC-PVTZ AUX)
    Blend: AUG-CC-PVTZ-JKFIT

    Orbital Energies (a.u.)
    -----------------------

    Doubly Occupied:

       1A    -26.326182     2A    -20.599252     3A    -15.566434
       4A    -11.347218     5A    -11.320654     6A    -11.275840
       7A    -11.275171     8A    -11.266530     9A    -11.263471
      10A    -11.256560    11A    -11.253357    12A    -11.247007
      13A    -11.240799    14A    -11.239713    15A     -1.644514
      16A     -1.416571    17A     -1.251517    18A     -1.181754
      19A     -1.110451    20A     -1.040576    21A     -1.035212
      22A     -1.018929    23A     -0.890076    24A     -0.874856
      25A     -0.853508    26A     -0.825279    27A     -0.772177
      28A     -0.739288    29A     -0.727028    30A     -0.710838
      31A     -0.700016    32A     -0.665399    33A     -0.661786
      34A     -0.641204    35A     -0.636491    36A     -0.629073
      37A     -0.603971    38A     -0.599864    39A     -0.561565
      40A     -0.539763    41A     -0.533352    42A     -0.523954
      43A     -0.516564    44A     -0.495516    45A     -0.420457
      46A     -0.389566    47A     -0.358319    48A     -0.350004
      49A     -0.331474

  @DF-RHF Final Energy:  -650.17061703855188

   => Energetics <=

    Nuclear Repulsion Energy =            813.9003227608933457
    One-Electron Energy =               -2502.6836783940907480
    Two-Electron Energy =                1038.6127385946456343
    DFT Exchange-Correlation Energy =       0.0000000000000000
    Empirical Dispersion Energy =           0.0000000000000000
    PCM Polarization Energy =               0.0000000000000000
    EFP Energy =                            0.0000000000000000
    Total Energy =                       -650.1706170385518817
  Basis Set: (AUG-CC-PVTZ AUX)
    Blend: AUG-CC-PVTZ-RI
    Molecular point group: c1

    Geometry (in Angstrom), charge = 0, multiplicity = 1:

       Center              X                  Y                   Z               Mass
    ------------   -----------------  -----------------  -----------------  -----------------
           C         -1.322777593647     0.750704427330    -0.797490600358    12.000000000000
           C         -2.400777593647     1.323704427330    -0.124490600358    12.000000000000
           C          0.617222406353    -1.482295572670    -1.673490600358    12.000000000000
           C          2.120222406353     0.033704427330    -0.566490600358    12.000000000000
           C         -1.407777593647     0.707704427330     1.990509399642    12.000000000000
           C          1.719222406353    -2.015295572670    -2.322490600358    12.000000000000
           C          3.155222406353    -0.567295572670    -1.264490600358    12.000000000000
           C         -0.286777593647     0.155704427330    -0.077490600358    12.000000000000
           C          0.830222406353    -0.438295572670    -0.780490600358    12.000000000000
           C         -2.443777593647     1.302704427330     1.269509399642    12.000000000000
           C         -0.329777593647     0.134704427330     1.316509399642    12.000000000000
           N          2.987222406353    -1.583295572670    -2.140490600358    14.003074004780
           O         -3.496777593647     1.862704427330     1.926509399642    15.994914619560
           F          0.658222406353    -0.433295572670     2.023509399642    18.998403224000
           H         -1.303777593647     0.774704427330    -1.884490600358     1.007825032070
           H         -3.205777593647     1.784704427330    -0.691490600358     1.007825032070
           H         -0.374777593647    -1.876295572670    -1.868490600358     1.007825032070
           H          2.324222406353     0.846704427330     0.123509399642     1.007825032070
           H         -1.435777593647     0.687704427330     3.076509399642     1.007825032070
           H          1.606222406353    -2.829295572670    -3.030490600358     1.007825032070
           H          4.179222406353    -0.236295572670    -1.131490600358     1.007825032070
           H         -3.188777593647     2.574704427330     2.509509399642     1.007825032070

  Basis Set: AUG-CC-PVTZ
    Blend: AUG-CC-PVTZ
  Basis Set: (AUG-CC-PVTZ AUX)
    Blend: AUG-CC-PVTZ-JKFIT
  Basis Set: (AUG-CC-PVTZ AUX)
    Blend: AUG-CC-PVTZ-JKFIT
	 Reference Energy          =    -650.1706170385518817 [Eh]
	 Singles Energy            =      -0.0000000000000003 [Eh]
	 Same-Spin Energy          =      -0.6771787451715324 [Eh]
	 Opposite-Spin Energy      =      -2.0188791183428720 [Eh]
	 Correlation Energy        =      -2.6960578635144050 [Eh]
	 Total Energy              =    -652.8666749020662792 [Eh]

	 ================> DF-SCS-MP2 Energies <==================
	-----------------------------------------------------------
	 SCS Same-Spin Scale       =       0.3333333333333333 [-]
	 SCS Opposite-Spin Scale   =       1.2000000000000000 [-]
	 SCS Same-Spin Energy      =      -0.2257262483905108 [Eh]
	 SCS Opposite-Spin Energy  =      -2.4226549420114463 [Eh]
	 SCS Correlation Energy    =      -2.6483811904019574 [Eh]
	 SCS Total Energy          =    -652.8189982289538875 [Eh]
	-----------------------------------------------------------

  -Total Gradient:
     Atom            X                  Y                   Z
    ------   -----------------  -----------------  -----------------
       1        0.010586777599    -0.000811250873    -0.012273734336
       2        0.002238185367     0.001038557001     0.002921440873
       3       -0.007055644708    -0.001049002682     0.002931849217
       4       -0.003760761637     0.005817763830     0.003664420069
       5       -0.007186159437     0.004228754360    -0.001134421731
       6       -0.014077849794    -0.000974052545     0.002595192643
       7       -0.003129005833     0.009479491627     0.008757136744
       8       -0.000631124638     0.000376834934    -0.002377700974
       9       -0.001812509300     0.001109802965    -0.000705371234
      10       -0.016852437457     0.001621700179     0.005241680968
      11        0.021008739650    -0.015081055736     0.004896001313
      12        0.013565259568    -0.006762318406    -0.008479595128
      13        0.008002451983    -0.010307611926    -0.004674183117
      14        0.001460396399    -0.000279800515     0.002524738038
      15       -0.003228152928     0.001355732053    -0.006126177004
      16       -0.003383915745     0.001292516355    -0.005614708943
      17       -0.003128188023    -0.002581564502    -0.002757829103
      18        0.002862523057     0.003670170063     0.002785401553
      19        0.000437162822     0.000462555591     0.005221781904
      20        0.000402473901    -0.001794853714    -0.002004429215
      21        0.002500832652     0.000171291710     0.000079268425
      22        0.001180946502     0.009016340237     0.004529239042

*** Psi4 exiting successfully. Buy a developer a beer!
