                               Psi4 1.1 release

  ==> Input File <==

--------------------------------------------------------------------------

memory 8 Gb

molecule phepyrFOH_neutral {
  symmetry C1
  0 1
  C      1.885   -1.036   -0.112
  C      0.807   -0.463   0.561
  C      3.887   -3.448   -0.738
  C      5.266   -1.573   -0.131
  C      1.800   -1.079   2.676
  C      4.986   -3.973   -1.398
  C      6.303   -2.183   -0.818
  C      2.921   -1.631   0.608
  C      4.038   -2.225   -0.095
  C      0.764   -0.484   1.955
  C      2.878   -1.652   2.002
  N      6.194   -3.370   -1.455
  O      -0.289   0.076   2.612
  F      3.866   -2.220   2.709
  H      1.904   -1.012   -1.199
  H      0.002   -0.002   -0.006
  H      2.944   -3.986   -0.733
  H      5.421   -0.618   0.360
  H      1.772   -1.099   3.762
  H      4.920   -4.924   -1.917
  H      7.281   -1.716   -0.874
  H      -0.175   -0.018   3.571
  units Angstrom
}

dih_string = "1 8 9 3 285"
set optking { fixed_dihedral = $dih_string
              opt_coordinates = cartesian
              dynamic_level = 1
              geom_maxiter = 250
              print_trajectory_xyz_file = True }

optimize('MP2/aug-cc-PVTZ')
--------------------------------------------------------------------------

    Molecular point group: c1
  Charge       = 0
  Multiplicity = 1
  Basis Set: AUG-CC-PVTZ
    Blend: AUG-CC-PVTZ
  Basis Set: (AUG-CC-PVTZ AUX)
    Blend: AUG-CC-PVTZ-JKFIT
  @DF-RHF Final Energy:  -650.17268833482331
    Total Energy =                       -650.1726883348233059
  Basis Set: (AUG-CC-PVTZ AUX)
    Blend: AUG-CC-PVTZ-RI
    Molecular point group: c1
  Basis Set: AUG-CC-PVTZ
    Blend: AUG-CC-PVTZ
  Basis Set: (AUG-CC-PVTZ AUX)
    Blend: AUG-CC-PVTZ-JKFIT
  Basis Set: (AUG-CC-PVTZ AUX)
    Blend: AUG-CC-PVTZ-JKFIT
	 Reference Energy          =    -650.1726883348233059 [Eh]
	 Singles Energy            =      -0.0000000000000001 [Eh]
	 Same-Spin Energy          =      -0.6772096159235146 [Eh]
	 Opposite-Spin Energy      =      -2.0192794781816183 [Eh]
	 Correlation Energy        =      -2.6964890941051332 [Eh]
	 Total Energy              =    -652.8691774289284240 [Eh]
	 SCS Total Energy          =    -652.8215602472823775 [Eh]
  @DF-RHF Final Energy:  -650.17268831329579
    Total Energy =                       -650.1726883132957937
  @DF-RHF Final Energy:  -650.17268831227750
    Total Energy =                       -650.1726883122773870
  @DF-RHF Final Energy:  -650.17674803404316
    Total Energy =                       -650.1767480340431575
  @DF-RHF Final Energy:  -650.17931828341113
    Total Energy =                       -650.1793182834112486
  @DF-RHF Final Energy:  -650.18032759870835
    Total Energy =                       -650.1803275987083452
  @DF-RHF Final Energy:  -650.18054442139203
    Total Energy =                       -650.1805444213921419
  @DF-RHF Final Energy:  -650.18054726362334
    Total Energy =                       -650.1805472636233389
  @DF-RHF Final Energy:  -650.18053846443854
    Total Energy =                       -650.1805384644385413
  @DF-RHF Final Energy:  -650.18055227017089
    Total Energy =                       -650.1805522701708924
  @DF-RHF Final Energy:  -650.18055363648216
    Total Energy =                       -650.1805536364822729
  @DF-RHF Final Energy:  -650.18055392183453
    Total Energy =                       -650.1805539218344165
  @DF-RHF Final Energy:  -650.18055227188518
    Total Energy =                       -650.1805522718852899
  @DF-RHF Final Energy:  -650.18052991984882
    Total Energy =                       -650.1805299198488228
  @DF-RHF Final Energy:  -650.18054681935348
    Total Energy =                       -650.1805468193535944
  @DF-RHF Final Energy:  -650.18055128553715
    Total Energy =                       -650.1805512855371489
  @DF-RHF Final Energy:  -650.18055371980108
    Total Energy =                       -650.1805537198010825
  @DF-RHF Final Energy:  -650.18004531477823
    Total Energy =                       -650.1800453147782264
  @DF-RHF Final Energy:  -650.18042173399635
    Total Energy =                       -650.1804217339963543
  @DF-RHF Final Energy:  -650.18053960102418
    Total Energy =                       -650.1805396010242930
  @DF-RHF Final Energy:  -650.18054838416913
    Total Energy =                       -650.1805483841692421
  @DF-RHF Final Energy:  -650.18053636829291
    Total Energy =                       -650.1805363682929055
  @DF-RHF Final Energy:  -650.18055117756080
    Total Energy =                       -650.1805511775608011
  @DF-RHF Final Energy:  -650.18054667784259
    Total Energy =                       -650.1805466778425853
  Charge       = 0
  Multiplicity = 1
  Basis Set: AUG-CC-PVTZ
    Blend: AUG-CC-PVTZ
  Basis Set: (AUG-CC-PVTZ AUX)
    Blend: AUG-CC-PVTZ-JKFIT

    Orbital Energies (a.u.)
    -----------------------

    Doubly Occupied:

       1A    -26.320738     2A    -20.609429     3A    -15.564090
       4A    -11.344840     5A    -11.325318     6A    -11.273074
       7A    -11.272583     8A    -11.267237     9A    -11.261914
      10A    -11.252458    11A    -11.250293    12A    -11.240278
      13A    -11.239043    14A    -11.238354    15A     -1.639162
      16A     -1.427169    17A     -1.260159    18A     -1.184362
      19A     -1.111880    20A     -1.042851    21A     -1.035410
      22A     -1.023937    23A     -0.892202    24A     -0.874322
      25A     -0.859240    26A     -0.827249    27A     -0.773244
      28A     -0.745513    29A     -0.726881    30A     -0.706785
      31A     -0.692871    32A     -0.668607    33A     -0.660737
      34A     -0.643725    35A     -0.636262    36A     -0.616869
      37A     -0.610223    38A     -0.598089    39A     -0.580660
      40A     -0.546651    41A     -0.540613    42A     -0.531451
      43A     -0.525140    44A     -0.495674    45A     -0.418805
      46A     -0.384861    47A     -0.361625    48A     -0.348185
      49A     -0.331554

  @DF-RHF Final Energy:  -650.18053639250809

   => Energetics <=

    Nuclear Repulsion Energy =            813.7102047529139099
    One-Electron Energy =               -2502.2162438199211465
    Two-Electron Energy =                1038.3255026744993756
    DFT Exchange-Correlation Energy =       0.0000000000000000
    Empirical Dispersion Energy =           0.0000000000000000
    PCM Polarization Energy =               0.0000000000000000
    EFP Energy =                            0.0000000000000000
    Total Energy =                       -650.1805363925079746
  Basis Set: (AUG-CC-PVTZ AUX)
    Blend: AUG-CC-PVTZ-RI
    Molecular point group: c1
  Basis Set: AUG-CC-PVTZ
    Blend: AUG-CC-PVTZ
  Basis Set: (AUG-CC-PVTZ AUX)
    Blend: AUG-CC-PVTZ-JKFIT
  Basis Set: (AUG-CC-PVTZ AUX)
    Blend: AUG-CC-PVTZ-JKFIT
	 Reference Energy          =    -650.1805363925080883 [Eh]
	 Singles Energy            =      -0.0000000000000009 [Eh]
	 Same-Spin Energy          =      -0.6761630000377047 [Eh]
	 Opposite-Spin Energy      =      -2.0164870960374324 [Eh]
	 Correlation Energy        =      -2.6926500960751381 [Eh]
	 Total Energy              =    -652.8731864885832010 [Eh]

	 ================> DF-SCS-MP2 Energies <==================
	-----------------------------------------------------------
	 SCS Same-Spin Scale       =       0.3333333333333333 [-]
	 SCS Opposite-Spin Scale   =       1.2000000000000000 [-]
	 SCS Same-Spin Energy      =      -0.2253876666792349 [Eh]
	 SCS Opposite-Spin Energy  =      -2.4197845152449187 [Eh]
	 SCS Correlation Energy    =      -2.6451721819241545 [Eh]
	 SCS Total Energy          =    -652.8257085744322694 [Eh]
	-----------------------------------------------------------

  -Total Gradient:
     Atom            X                  Y                   Z
    ------   -----------------  -----------------  -----------------
       1        0.000904187719     0.001757892644     0.000031196372
       2        0.000037006984     0.000027507001    -0.000021054780
       3        0.000508564536    -0.000805197186     0.001530113056
       4        0.000044510387     0.000036987944    -0.000066973145
       5        0.000026766524     0.000014948662     0.000012652175
       6       -0.000073815558    -0.000147820043     0.000194857089
       7       -0.000005953412     0.000059642336    -0.000052627213
       8       -0.001060976530    -0.003018229328     0.000725810702
       9       -0.000369344510     0.002072083213    -0.002327858137
      10       -0.000022089202    -0.000003671798     0.000002447923
      11       -0.000034040091    -0.000021726541     0.000011129085
      12        0.000099063902     0.000058112635    -0.000029574822
      13       -0.000032081995    -0.000000479028    -0.000021710465
      14        0.000033941450    -0.000012892178     0.000035392855
      15       -0.000040046744    -0.000082323023    -0.000022503583
      16       -0.000019872237     0.000018512454    -0.000012699826
      17       -0.000053993746    -0.000010218737    -0.000015384710
      18        0.000028838751     0.000026875464     0.000022198085
      19        0.000002851179    -0.000013808372     0.000008252300
      20       -0.000039039574     0.000030606676    -0.000062473489
      21        0.000065955185     0.000017197250     0.000033477958
      22       -0.000000433028    -0.000004000043     0.000025332572

  **** Optimization is complete! (in 8 steps) ****
    Final optimized geometry and variables:
    Molecular point group: c1

    Geometry (in Angstrom), charge = 0, multiplicity = 1:

    C           -1.372727275643     0.731313556408    -0.762487983746
    C           -2.434676251309     1.308410504596    -0.089220237833
    C            0.721410845565    -1.669400934637    -1.448838737505
    C            2.070346128524     0.182298496905    -0.822987927025
    C           -1.398284996077     0.736662578311     2.002389389220
    C            1.827406097066    -2.190218859756    -2.103772174610
    C            3.120066269573    -0.416951453234    -1.501527496566
    C           -0.307666261935     0.140255781941    -0.085539850917
    C            0.832413774568    -0.447884836026    -0.797079289724
    C           -2.447677151335     1.309397486281     1.298520351521
    C           -0.354249650871     0.172394202119     1.297956778522
    N            3.016611939785    -1.585152545441    -2.139928548038
    O           -3.514134147934     1.887283163692     1.914727731686
    F            0.655463340679    -0.376759221385     1.997319620525
    H           -1.358850042876     0.733218279715    -1.842184725682
    H           -3.253447160242     1.764100982857    -0.622399623662
    H           -0.215376750366    -2.206342949510    -1.443947594821
    H            2.211102903424     1.128370044116    -0.322316838545
    H           -1.377386160329     0.719539889790     3.081384023292
    H            1.757260661647    -3.137451544519    -2.619825587814
    H            4.089024991913     0.061168762882    -1.534830285644
    H           -3.402855281823     1.823046959493     2.868017082395

*** Psi4 exiting successfully. Buy a developer a beer!
