                               Psi4 1.1 release

  ==> Input File <==

--------------------------------------------------------------------------

memory 5 Gb

molecule phepyrOH_cation {
  symmetry C1
  1 1
  C      1.885   -1.036   -0.112
  C      2.878   -1.652   2.002
  C      0.807   -0.463   0.561
  C      1.800   -1.079   2.676
  C      4.440   -1.719   -1.322
  C      4.716   -3.305   0.469
  C      5.516   -2.309   -1.970
  C      5.786   -3.855   -0.224
  C      2.921   -1.631   0.608
  C      4.040   -2.225   -0.090
  C      0.764   -0.484   1.955
  N      6.150   -3.348   -1.409
  O      -0.288   0.076   2.612
  H      1.904   -1.012   -1.199
  H      3.678   -2.112   2.578
  H      0.003   -0.001   -0.006
  H      1.772   -1.098   3.762
  H      3.931   -0.877   -1.782
  H      4.425   -3.721   1.429
  H      5.897   -1.982   -2.928
  H      6.368   -4.693   0.134
  H      6.938   -3.767   -1.902
  H      -0.109   1.011   2.800
  units Angstrom
}

dih_string = "3 11 13 23 270"
set optking fixed_dihedral = $dih_string

optimize('MP2/aug-cc-PVTZ')
--------------------------------------------------------------------------

    Molecular point group: c1
  Charge       = 1
  Multiplicity = 1
  Basis Set: AUG-CC-PVTZ
    Blend: AUG-CC-PVTZ
  Basis Set: (AUG-CC-PVTZ AUX)
    Blend: AUG-CC-PVTZ-JKFIT
  @DF-RHF Final Energy:  -551.67027520023362
    Total Energy =                       -551.6702752002336183
  Basis Set: (AUG-CC-PVTZ AUX)
    Blend: AUG-CC-PVTZ-RI
    Molecular point group: c1
  Basis Set: AUG-CC-PVTZ
    Blend: AUG-CC-PVTZ
  Basis Set: (AUG-CC-PVTZ AUX)
    Blend: AUG-CC-PVTZ-JKFIT
  Basis Set: (AUG-CC-PVTZ AUX)
    Blend: AUG-CC-PVTZ-JKFIT
	 Reference Energy          =    -551.6702752002336183 [Eh]
	 Singles Energy            =      -0.0000000000000002 [Eh]
	 Same-Spin Energy          =      -0.5960674357813543 [Eh]
	 Opposite-Spin Energy      =      -1.8245595678066582 [Eh]
	 Correlation Energy        =      -2.4206270035880126 [Eh]
	 Total Energy              =    -554.0909022038216563 [Eh]
	 SCS Total Energy          =    -554.0584358268620235 [Eh]
  @DF-RHF Final Energy:  -551.67497989761932
    Total Energy =                       -551.6749798976193233
  @DF-RHF Final Energy:  -551.67563024396839
    Total Energy =                       -551.6756302439683850
  @DF-RHF Final Energy:  -551.67551472873754
    Total Energy =                       -551.6755147287375394
  @DF-RHF Final Energy:  -551.67556705690754
    Total Energy =                       -551.6755670569075392
  Charge       = 1
  Multiplicity = 1
  Basis Set: AUG-CC-PVTZ
    Blend: AUG-CC-PVTZ
  Basis Set: (AUG-CC-PVTZ AUX)
    Blend: AUG-CC-PVTZ-JKFIT

    Orbital Energies (a.u.)
    -----------------------

    Doubly Occupied:

       1A    -20.687501     2A    -15.831506     3A    -11.482397
       4A    -11.482299     5A    -11.452110     6A    -11.424348
       7A    -11.412508     8A    -11.412385     9A    -11.378857
      10A    -11.376304    11A    -11.376000    12A    -11.353286
      13A    -11.353020    14A     -1.510027    15A     -1.507577
      16A     -1.320667    17A     -1.267066    18A     -1.240530
      19A     -1.157134    20A     -1.154587    21A     -1.065312
      22A     -1.058501    23A     -0.971301    24A     -0.964437
      25A     -0.953435    26A     -0.867839    27A     -0.862555
      28A     -0.854426    29A     -0.819024    30A     -0.803083
      31A     -0.780950    32A     -0.770581    33A     -0.758651
      34A     -0.750729    35A     -0.725680    36A     -0.708273
      37A     -0.703757    38A     -0.660943    39A     -0.651227
      40A     -0.641514    41A     -0.589385    42A     -0.577739
      43A     -0.541206    44A     -0.470887    45A     -0.450628

  @DF-RHF Final Energy:  -551.67556946214313

   => Energetics <=

    Nuclear Repulsion Energy =            712.9117181484361936
    One-Electron Energy =               -2148.8102373974506918
    Two-Electron Energy =                 884.2229497868713679
    DFT Exchange-Correlation Energy =       0.0000000000000000
    Empirical Dispersion Energy =           0.0000000000000000
    PCM Polarization Energy =               0.0000000000000000
    EFP Energy =                            0.0000000000000000
    Total Energy =                       -551.6755694621431303
  Basis Set: (AUG-CC-PVTZ AUX)
    Blend: AUG-CC-PVTZ-RI
    Molecular point group: c1
  Basis Set: AUG-CC-PVTZ
    Blend: AUG-CC-PVTZ
  Basis Set: (AUG-CC-PVTZ AUX)
    Blend: AUG-CC-PVTZ-JKFIT
  Basis Set: (AUG-CC-PVTZ AUX)
    Blend: AUG-CC-PVTZ-JKFIT
	 Reference Energy          =    -551.6755694621431303 [Eh]
	 Singles Energy            =      -0.0000000000000001 [Eh]
	 Same-Spin Energy          =      -0.5953344815884609 [Eh]
	 Opposite-Spin Energy      =      -1.8229610061837040 [Eh]
	 Correlation Energy        =      -2.4182954877721650 [Eh]
	 Total Energy              =    -554.0938649499153144 [Eh]

	 ================> DF-SCS-MP2 Energies <==================
	-----------------------------------------------------------
	 SCS Same-Spin Scale       =       0.3333333333333333 [-]
	 SCS Opposite-Spin Scale   =       1.2000000000000000 [-]
	 SCS Same-Spin Energy      =      -0.1984448271961536 [Eh]
	 SCS Opposite-Spin Energy  =      -2.1875532074204447 [Eh]
	 SCS Correlation Energy    =      -2.3859980346165983 [Eh]
	 SCS Total Energy          =    -554.0615674967597215 [Eh]
	-----------------------------------------------------------

  -Total Gradient:
     Atom            X                  Y                   Z
    ------   -----------------  -----------------  -----------------
       1       -0.000049400789    -0.000002004851    -0.000022586934
       2        0.000002540514    -0.000001901131     0.000028140391
       3       -0.000173903029    -0.000315744896    -0.000013644999
       4       -0.000024023242     0.000010279278     0.000028779395
       5        0.000038825022     0.000011325171    -0.000036659226
       6        0.000023773416    -0.000041833951    -0.000009098802
       7        0.000003688792     0.000018995526    -0.000009448583
       8       -0.000007306414    -0.000014350054     0.000014300758
       9        0.000007642401     0.000015710290     0.000010558161
      10       -0.000021024471     0.000004253551     0.000012451443
      11        0.000379345519     0.000420131422     0.000050325288
      12       -0.000006025929     0.000001533853    -0.000001199667
      13       -0.000381357106     0.000021362267    -0.000469136979
      14        0.000020727580    -0.000011473865     0.000016260487
      15        0.000010953459    -0.000002156153    -0.000028242813
      16        0.000009406913     0.000013684427     0.000021616083
      17       -0.000009185483     0.000003741156    -0.000014105341
      18       -0.000008614916    -0.000014400312     0.000024680674
      19       -0.000010527731     0.000024852500    -0.000004054692
      20       -0.000002574367    -0.000008434457     0.000004249616
      21        0.000002852833     0.000008725160    -0.000003598284
      22       -0.000006668038     0.000004517956     0.000005535169
      23        0.000200855064    -0.000146812873     0.000394878856

  **** Optimization is complete! (in 6 steps) ****
    Final optimized geometry and variables:
    Molecular point group: c1

    Geometry (in Angstrom), charge = 1, multiplicity = 1:

    C           -1.269537367998     0.751155827587    -0.559585607020
    C           -0.294185045588     0.108225795703     1.547717637016
    C           -2.340742428828     1.312750838735     0.108216119541
    C           -1.357020700195     0.685596265730     2.215325082722
    C            1.298914746715     0.002030434453    -1.800348812084
    C            1.584417093821    -1.549010412604    -0.007309970347
    C            2.353796877246    -0.584032369915    -2.453679880642
    C            2.636473569826    -2.112879485189    -0.684376972204
    C           -0.233871334965     0.137942774124     0.151481148018
    C            0.879603507131    -0.466897804074    -0.549126227027
    C           -2.380997659477     1.294232431247     1.498135105585
    N            2.990697795707    -1.618971616063    -1.881957338626
    O           -3.472109065487     1.784133084506     2.157492888034
    H           -1.269667850421     0.745784555457    -1.639254328617
    H            0.508907952047    -0.329990331313     2.121025558087
    H           -3.161318628636     1.756524520023    -0.433383255701
    H           -1.408761346147     0.673530252392     3.292688300747
    H            0.818950106464     0.850212864081    -2.259929685787
    H            1.294356022586    -1.978298620409     0.937427903512
    H            2.719733491515    -0.255052772667    -3.411956160755
    H            3.203142134194    -2.951467598769    -0.315444314050
    H            3.767339670635    -2.043311645487    -2.372683025888
    H           -3.362111462180     2.722554695565     2.342022414320

*** Psi4 exiting successfully. Buy a developer a beer!
