                               Psi4 1.1 release

  ==> Input File <==

--------------------------------------------------------------------------

memory 5 Gb

molecule phepyrF {
  symmetry C1
  0 1
  C      1.885   -1.036   -0.112
  C      0.807   -0.463   0.561
  C      2.921   -1.631   0.608
  C      0.764   -0.484   1.955
  C      4.285   -1.805   4.014
  C      4.664   -3.332   2.194
  C      5.323   -2.432   4.684
  C      5.685   -3.890   2.946
  C      2.878   -1.652   2.002
  C      3.955   -2.270   2.745
  C      1.800   -1.079   2.676
  N      6.034   -3.466   4.181
  F      1.744   -1.089   4.016
  H      1.918   -1.020   -1.198
  H      0.000   -0.000   -0.000
  H      3.755   -2.073   0.068
  H      -0.076   -0.038   2.480
  H      3.754   -0.980   4.477
  H      4.435   -3.720   1.207
  H      5.618   -2.108   5.677
  H      6.269   -4.719   2.560
  units Angstrom
}

dih_string = "3 9 10 5 150"
set optking fixed_dihedral = $dih_string

optimize('MP2/aug-cc-PVTZ')
--------------------------------------------------------------------------

    Molecular point group: c1
  Charge       = 0
  Multiplicity = 1
  Basis Set: AUG-CC-PVTZ
    Blend: AUG-CC-PVTZ
  Basis Set: (AUG-CC-PVTZ AUX)
    Blend: AUG-CC-PVTZ-JKFIT
  @DF-RHF Final Energy:  -575.27942701560085
    Total Energy =                       -575.2794270156008452
  Basis Set: (AUG-CC-PVTZ AUX)
    Blend: AUG-CC-PVTZ-RI
    Molecular point group: c1
  Basis Set: AUG-CC-PVTZ
    Blend: AUG-CC-PVTZ
  Basis Set: (AUG-CC-PVTZ AUX)
    Blend: AUG-CC-PVTZ-JKFIT
  Basis Set: (AUG-CC-PVTZ AUX)
    Blend: AUG-CC-PVTZ-JKFIT
	 Reference Energy          =    -575.2794270156008452 [Eh]
	 Singles Energy            =      -0.0000000000000001 [Eh]
	 Same-Spin Energy          =      -0.6090787196562922 [Eh]
	 Opposite-Spin Energy      =      -1.8334503625532601 [Eh]
	 Correlation Energy        =      -2.4425290822095524 [Eh]
	 Total Energy              =    -577.7219560978104482 [Eh]
	 SCS Total Energy          =    -577.6825936905502203 [Eh]
  @DF-RHF Final Energy:  -575.28583009378201
    Total Energy =                       -575.2858300937820104
  @DF-RHF Final Energy:  -575.28821696874274
    Total Energy =                       -575.2882169687427449
  @DF-RHF Final Energy:  -575.28892522898411
    Total Energy =                       -575.2889252289841124
  @DF-RHF Final Energy:  -575.28918751282140
    Total Energy =                       -575.2891875128213997
  @DF-RHF Final Energy:  -575.28930475878190
    Total Energy =                       -575.2893047587818955
  Charge       = 0
  Multiplicity = 1
  Basis Set: AUG-CC-PVTZ
    Blend: AUG-CC-PVTZ
  Basis Set: (AUG-CC-PVTZ AUX)
    Blend: AUG-CC-PVTZ-JKFIT

    Orbital Energies (a.u.)
    -----------------------

    Doubly Occupied:

       1A    -26.319259     2A    -15.563328     3A    -11.340179
       4A    -11.272463     5A    -11.271225     6A    -11.270860
       7A    -11.264720     8A    -11.258038     9A    -11.257484
      10A    -11.251659    11A    -11.248138    12A    -11.239913
      13A    -11.237046    14A     -1.638593    15A     -1.259905
      16A     -1.187169    17A     -1.115814    18A     -1.040357
      19A     -1.033668    20A     -1.030235    21A     -0.894172
      22A     -0.875228    23A     -0.845064    24A     -0.828615
      25A     -0.757654    26A     -0.722975    27A     -0.717608
      28A     -0.706065    29A     -0.673455    30A     -0.663058
      31A     -0.653900    32A     -0.624970    33A     -0.611614
      34A     -0.597621    35A     -0.592632    36A     -0.551988
      37A     -0.541832    38A     -0.527452    39A     -0.520514
      40A     -0.507975    41A     -0.419287    42A     -0.412575
      43A     -0.355310    44A     -0.348413    45A     -0.330827

  @DF-RHF Final Energy:  -575.28934231777509

   => Energetics <=

    Nuclear Repulsion Energy =            715.5514986188367175
    One-Electron Energy =               -2202.9199737094368174
    Two-Electron Energy =                 912.0791327728248916
    DFT Exchange-Correlation Energy =       0.0000000000000000
    Empirical Dispersion Energy =           0.0000000000000000
    PCM Polarization Energy =               0.0000000000000000
    EFP Energy =                            0.0000000000000000
    Total Energy =                       -575.2893423177750947
  Basis Set: (AUG-CC-PVTZ AUX)
    Blend: AUG-CC-PVTZ-RI
    Molecular point group: c1
  Basis Set: AUG-CC-PVTZ
    Blend: AUG-CC-PVTZ
  Basis Set: (AUG-CC-PVTZ AUX)
    Blend: AUG-CC-PVTZ-JKFIT
  Basis Set: (AUG-CC-PVTZ AUX)
    Blend: AUG-CC-PVTZ-JKFIT
	 Reference Energy          =    -575.2893423177750947 [Eh]
	 Singles Energy            =      -0.0000000000000001 [Eh]
	 Same-Spin Energy          =      -0.6076489052911365 [Eh]
	 Opposite-Spin Energy      =      -1.8304962149506987 [Eh]
	 Correlation Energy        =      -2.4381451202418352 [Eh]
	 Total Energy              =    -577.7274874380169649 [Eh]

	 ================> DF-SCS-MP2 Energies <==================
	-----------------------------------------------------------
	 SCS Same-Spin Scale       =       0.3333333333333333 [-]
	 SCS Opposite-Spin Scale   =       1.2000000000000000 [-]
	 SCS Same-Spin Energy      =      -0.2025496350970455 [Eh]
	 SCS Opposite-Spin Energy  =      -2.1965954579408384 [Eh]
	 SCS Correlation Energy    =      -2.3991450930378839 [Eh]
	 SCS Total Energy          =    -577.6884874108129679 [Eh]
	-----------------------------------------------------------

  -Total Gradient:
     Atom            X                  Y                   Z
    ------   -----------------  -----------------  -----------------
       1       -0.000042390558     0.000002891173     0.000032139597
       2        0.000039861521    -0.000002965356    -0.000041939276
       3       -0.001060615428    -0.001940346871    -0.000069522597
       4       -0.000038648923    -0.000006579722     0.000063880891
       5       -0.001592090567    -0.001492477596     0.000863750381
       6        0.000039011474    -0.000009402986    -0.000000244330
       7        0.000074721950     0.000037666519    -0.000041731008
       8       -0.000034819767    -0.000009385729    -0.000038235013
       9        0.000930001682     0.002034374227     0.000603744601
      10        0.001686579861     0.001378751633    -0.001398111286
      11        0.000004193645     0.000032827997    -0.000197285704
      12        0.000004380803    -0.000005039617     0.000051350516
      13        0.000016898573    -0.000017117741     0.000181148644
      14        0.000000678918     0.000001579565    -0.000017725661
      15       -0.000005018131     0.000008685445    -0.000016711767
      16        0.000023645619     0.000000837248    -0.000015288426
      17       -0.000002194216     0.000000106363     0.000014001323
      18       -0.000001332952     0.000021951023     0.000024216874
      19       -0.000017028521    -0.000023155551    -0.000013948741
      20       -0.000028951272    -0.000006140649     0.000023424217
      21        0.000003116292    -0.000007059369    -0.000006913223

  **** Optimization is complete! (in 7 steps) ****
    Final optimized geometry and variables:
    Molecular point group: c1

    Geometry (in Angstrom), charge = 0, multiplicity = 1:

    C           -1.304572508392     0.846197354457    -2.696806015858
    C           -2.424073958265     1.386205111340    -2.079241203168
    C           -0.292665119483     0.293827509392    -1.930111947040
    C           -2.521767322959     1.363965719912    -0.697067171912
    C            1.069094154115     0.061013482447     1.524928287846
    C            1.428208028908    -1.439475376649    -0.274524082801
    C            2.101616961945    -0.578579945307     2.192343674951
    C            2.441839104499    -2.018018356773     0.470701062893
    C           -0.353500905810     0.265124576332    -0.534300714925
    C            0.715728097146    -0.360436626169     0.245000689608
    C           -1.497545033891     0.808864492589     0.042266536682
    N            2.791397074256    -1.605444393655     1.691181988509
    F           -1.649637103082     0.771079657799     1.380617493805
    H           -1.215756618178     0.861509371702    -3.771507457321
    H           -3.218067146358     1.821541409990    -2.665566480682
    H            0.588361735822    -0.097971222531    -2.414841706881
    H           -3.380285564532     1.761294924205    -0.180334120493
    H            0.568065056407     0.891938962020     1.991664675502
    H            1.180583311907    -1.847306573612    -1.242431048586
    H            2.387080149979    -0.248842499488     3.181372875181
    H            2.994757575569    -2.856778427100     0.071460820818

*** Psi4 exiting successfully. Buy a developer a beer!
