                               Psi4 1.1 release

  ==> Input File <==

--------------------------------------------------------------------------

memory 1000 mb

molecule butane {
  symmetry C1
  0 1
  H      1.604   0.760   -8.260
  H      1.745   2.388   -8.880
  H      2.043   1.024   -9.930
  C      2.142   1.395   -8.932
  H      4.169   2.051   -9.210
  H      3.731   1.788   -7.539
  C      3.631   1.416   -8.537
  H      3.665   -0.647   -7.940
  H      4.104   -0.384   -9.610
  C      4.203   -0.012   -8.612
  H      5.809   0.538   -7.296
  H      6.256   0.497   -8.984
  H      6.044   -0.994   -8.100
  C      5.691   0.009   -8.218
  units Angstrom
}

dih_string = "7 10 14 13 170"
set optking fixed_dihedral = $dih_string

optimize('MP2/aug-cc-pvtz')
--------------------------------------------------------------------------

    Molecular point group: c1
  Charge       = 0
  Multiplicity = 1
  Basis Set: AUG-CC-PVTZ
    Blend: AUG-CC-PVTZ
  Basis Set: (AUG-CC-PVTZ AUX)
    Blend: AUG-CC-PVTZ-JKFIT
  @DF-RHF Final Energy:  -157.35243232639198
    Total Energy =                       -157.3524323263919769
  Basis Set: (AUG-CC-PVTZ AUX)
    Blend: AUG-CC-PVTZ-RI
    Molecular point group: c1
  Basis Set: AUG-CC-PVTZ
    Blend: AUG-CC-PVTZ
  Basis Set: (AUG-CC-PVTZ AUX)
    Blend: AUG-CC-PVTZ-JKFIT
  Basis Set: (AUG-CC-PVTZ AUX)
    Blend: AUG-CC-PVTZ-JKFIT
	 Reference Energy          =    -157.3524323263919769 [Eh]
	 Singles Energy            =      -0.0000000000000000 [Eh]
	 Same-Spin Energy          =      -0.1653751549327140 [Eh]
	 Opposite-Spin Energy      =      -0.6387016000789257 [Eh]
	 Correlation Energy        =      -0.8040767550116397 [Eh]
	 Total Energy              =    -158.1565090814036125 [Eh]
	 SCS Total Energy          =    -158.1739992981309229 [Eh]
  @DF-RHF Final Energy:  -157.35508011403272
    Total Energy =                       -157.3550801140327167
  @DF-RHF Final Energy:  -157.35587333200991
    Total Energy =                       -157.3558733320099066
  @DF-RHF Final Energy:  -157.35610749933741
    Total Energy =                       -157.3561074993374120
  Charge       = 0
  Multiplicity = 1
  Basis Set: AUG-CC-PVTZ
    Blend: AUG-CC-PVTZ
  Basis Set: (AUG-CC-PVTZ AUX)
    Blend: AUG-CC-PVTZ-JKFIT

    Orbital Energies (a.u.)
    -----------------------

    Doubly Occupied:

       1A    -11.211399     2A    -11.210757     3A    -11.206050
       4A    -11.206025     5A     -1.074437     6A     -0.982188
       7A     -0.860951     8A     -0.787944     9A     -0.641161
      10A     -0.585622    11A     -0.577253    12A     -0.568275
      13A     -0.514255    14A     -0.494469    15A     -0.469919
      16A     -0.461209    17A     -0.456597

  @DF-RHF Final Energy:  -157.35610190878720

   => Energetics <=

    Nuclear Repulsion Energy =            131.5505291588329442
    One-Electron Energy =                -471.1962396309303358
    Two-Electron Energy =                 182.2896085633101961
    DFT Exchange-Correlation Energy =       0.0000000000000000
    Empirical Dispersion Energy =           0.0000000000000000
    PCM Polarization Energy =               0.0000000000000000
    EFP Energy =                            0.0000000000000000
    Total Energy =                       -157.3561019087871955
  Basis Set: (AUG-CC-PVTZ AUX)
    Blend: AUG-CC-PVTZ-RI
    Molecular point group: c1
  Basis Set: AUG-CC-PVTZ
    Blend: AUG-CC-PVTZ
  Basis Set: (AUG-CC-PVTZ AUX)
    Blend: AUG-CC-PVTZ-JKFIT
  Basis Set: (AUG-CC-PVTZ AUX)
    Blend: AUG-CC-PVTZ-JKFIT
	 Reference Energy          =    -157.3561019087871955 [Eh]
	 Singles Energy            =      -0.0000000000000000 [Eh]
	 Same-Spin Energy          =      -0.1654611086097921 [Eh]
	 Opposite-Spin Energy      =      -0.6391960296969228 [Eh]
	 Correlation Energy        =      -0.8046571383067149 [Eh]
	 Total Energy              =    -158.1607590470939044 [Eh]

	 ================> DF-SCS-MP2 Energies <==================
	-----------------------------------------------------------
	 SCS Same-Spin Scale       =       0.3333333333333333 [-]
	 SCS Opposite-Spin Scale   =       1.2000000000000000 [-]
	 SCS Same-Spin Energy      =      -0.0551537028699307 [Eh]
	 SCS Opposite-Spin Energy  =      -0.7670352356363074 [Eh]
	 SCS Correlation Energy    =      -0.8221889385062381 [Eh]
	 SCS Total Energy          =    -158.1782908472934253 [Eh]
	-----------------------------------------------------------

  -Total Gradient:
     Atom            X                  Y                   Z
    ------   -----------------  -----------------  -----------------
       1       -0.000039702350    -0.000026859028     0.000024848429
       2       -0.000013543292     0.000043424342    -0.000000402610
       3       -0.000016308658    -0.000018630169    -0.000051882689
       4        0.000128567195    -0.000038004067     0.000041752852
       5        0.000015885172     0.000007700638    -0.000033733599
       6       -0.000005595330    -0.000012268453     0.000007189516
       7       -0.000272470319    -0.000143771109     0.001056735029
       8        0.000007673391    -0.000004712345    -0.000002931794
       9        0.000007772952     0.000020371577    -0.000055782439
      10        0.000252918335     0.000209250085    -0.000990648016
      11        0.000021124289     0.000017677060     0.000015576834
      12        0.000039859475     0.000016540196    -0.000054881262
      13       -0.000358354513    -0.000012211571     0.001463293776
      14        0.000232173655    -0.000058507155    -0.001419134027

  **** Optimization is complete! (in 5 steps) ****
    Final optimized geometry and variables:
    Molecular point group: c1

    Geometry (in Angstrom), charge = 0, multiplicity = 1:

    H           -2.351419731162     0.050162785459     0.294221498061
    H           -2.199729480485     1.696255103299    -0.310078897161
    H           -1.897419664687     0.332291875727    -1.380544851781
    C           -1.772768935826     0.697394344870    -0.362627628313
    H            0.253538588522     1.359412706426    -0.621408528185
    H           -0.198734120641     1.086017567476     1.045236530543
    C           -0.308746872894     0.691895482958     0.033892665120
    H           -0.245091494567    -1.347167997771     0.657174206173
    H            0.173163539378    -1.106950455384    -1.022872066224
    C            0.305100412536    -0.693684601032    -0.021790492635
    H            1.931060543693    -0.171902378215     1.291555523665
    H            2.371844003348    -0.192040966700    -0.409734612028
    H            2.159519712559    -1.706077197212     0.471871718331
    C            1.776689869273    -0.695605314401     0.349230356872

*** Psi4 exiting successfully. Buy a developer a beer!
