                              Psi4 1.0.0 Driver

  ==> Input File <==

--------------------------------------------------------------------------

memory 1000 mb

molecule butane {
  symmetry C1
  0 1
  H      1.604   0.760   -8.260
  H      1.745   2.388   -8.880
  H      2.043   1.024   -9.930
  C      2.142   1.395   -8.932
  H      4.169   2.051   -9.210
  H      3.731   1.788   -7.539
  C      3.631   1.416   -8.537
  H      3.561   -0.681   -8.078
  H      4.266   -0.318   -9.635
  C      4.203   -0.012   -8.612
  H      6.005   -1.029   -8.035
  H      5.546   0.269   -6.960
  H      6.250   0.633   -8.516
  C      5.608   -0.037   -7.983
  units Angstrom
}

dih_string = "4 7 10 14 190"
set optking fixed_dihedral = $dih_string

optimize('MP2/6-31G(d)')
--------------------------------------------------------------------------

    Molecular point group: c1
  Charge       = 0
  Multiplicity = 1
  Basis Set: 6-31G(D)
  Basis Set:
  @DF-RHF Final Energy:  -157.29370617545206
    Total Energy =                       -157.2937061754519164
  Basis Set:
    Molecular point group: c1
  Basis Set: 6-31G(D)
  Basis Set:
  Basis Set:
	 Reference Energy          =    -157.2937061754520585 [Eh]
	 Singles Energy            =      -0.0000000000000000 [Eh]
	 Same-Spin Energy          =      -0.1243519269461694 [Eh]
	 Opposite-Spin Energy      =      -0.4201312126838600 [Eh]
	 Correlation Energy        =      -0.5444831396300294 [Eh]
	 Total Energy              =    -157.8381893150820758 [Eh]
	 SCS Total Energy          =    -157.8393142729880765 [Eh]
  Basis Set: 6-31G(D)
  Basis Set:
  @DF-RHF Final Energy:  -157.29656012119068
    Total Energy =                       -157.2965601211905664
  Basis Set:
  Basis Set: 6-31G(D)
  Basis Set:
  @DF-RHF Final Energy:  -157.29732867890340
    Total Energy =                       -157.2973286789035114
  @DF-RHF Final Energy:  -157.29753311457642
    Total Energy =                       -157.2975331145763107
  @DF-RHF Final Energy:  -157.29754327605261
    Total Energy =                       -157.2975432760526928
	 Singles Energy            =      -0.0000000000000000 [Eh]
	 Same-Spin Energy          =      -0.1244370865634648 [Eh]
	 Opposite-Spin Energy      =      -0.4222102435021083 [Eh]
	 Correlation Energy        =      -0.5466473300655732 [Eh]
	 Total Energy              =    -157.8441906061181896 [Eh]
	 SCS Total Energy          =    -157.8456745971096211 [Eh]
  Charge       = 0
  Multiplicity = 1
  Basis Set: 6-31G(D)
  Basis Set:

    Orbital Energies (a.u.)
    -----------------------

    Doubly Occupied:

       1A    -11.215763     2A    -11.215162     3A    -11.210301
       4A    -11.210297     5A     -1.070405     6A     -0.979795
       7A     -0.859482     8A     -0.786248     9A     -0.637644
      10A     -0.583636    11A     -0.576003    12A     -0.565841
      13A     -0.513575    14A     -0.494594    15A     -0.468339
      16A     -0.459820    17A     -0.455918

  @DF-RHF Final Energy:  -157.29755248477866

   => Energetics <=

    Nuclear Repulsion Energy =            130.8008374340115836
    One-Electron Energy =                -469.5911349172567384
    Two-Electron Energy =                 181.4927449984668613
    DFT Exchange-Correlation Energy =       0.0000000000000000
    Empirical Dispersion Energy =           0.0000000000000000
    PCM Polarization Energy =               0.0000000000000000
    EFP Energy =                            0.0000000000000000
    Total Energy =                       -157.2975524847782651
  Basis Set:
    Molecular point group: c1
  Basis Set: 6-31G(D)
  Basis Set:
  Basis Set:
	 Reference Energy          =    -157.2975524847786630 [Eh]
	 Singles Energy            =      -0.0000000000000000 [Eh]
	 Same-Spin Energy          =      -0.1244356547420005 [Eh]
	 Opposite-Spin Energy      =      -0.4222022243848270 [Eh]
	 Correlation Energy        =      -0.5466378791268275 [Eh]
	 Total Energy              =    -157.8441903639054829 [Eh]

	 ================> DF-SCS-MP2 Energies <==================
	-----------------------------------------------------------
	 SCS Same-Spin Scale       =       0.3333333333333333 [-]
	 SCS Opposite-Spin Scale   =       1.2000000000000000 [-]
	 SCS Same-Spin Energy      =      -0.0414785515806668 [Eh]
	 SCS Opposite-Spin Energy  =      -0.5066426692617924 [Eh]
	 SCS Correlation Energy    =      -0.5481212208424592 [Eh]
	 SCS Total Energy          =    -157.8456737056211239 [Eh]
	-----------------------------------------------------------

  -Total Gradient:
     Atom            X                  Y                   Z
    ------   -----------------  -----------------  -----------------
       1       -0.000010209171     0.000000770537    -0.000004992368
       2       -0.000014498155     0.000002159344    -0.000001191621
       3        0.000006424570     0.000000688225     0.000000962781
       4       -0.000373749528    -0.000218817518     0.001436137928
       5        0.000009374051    -0.000007112774    -0.000000557540
       6       -0.000004159014    -0.000003760256    -0.000013892958
       7        0.000283271373     0.000215718685    -0.001456243718
       8        0.000011169223     0.000006833920    -0.000006186332
       9       -0.000008076383     0.000008561742    -0.000003455923
      10        0.000688552054     0.000319019231    -0.001290216392
      11        0.000012493136    -0.000003619954     0.000007166806
      12        0.000010649288    -0.000000613701     0.000002142931
      13       -0.000005737597    -0.000000573337    -0.000003134174
      14       -0.000605503847    -0.000319254145     0.001333460581

  **** Optimization is complete! (in 6 steps) ****
    Final optimized geometry and variables:
    Molecular point group: c1

    Geometry (in Angstrom), charge = 0, multiplicity = 1:

    H           -2.347294562153     0.081314273461     0.254696312756
    H           -2.186641168946     1.718862772198    -0.393919747474
    H           -1.901703219018     0.321175905939    -1.438471749021
    C           -1.764996073141     0.710318929224    -0.424897209607
    H            0.273441177524     1.382272419006    -0.686617572259
    H           -0.188376658399     1.106726708754     0.983706579976
    C           -0.291590568609     0.707069978369    -0.032833800875
    H           -0.319696494209    -1.386232591273     0.451863011973
    H            0.367059367339    -1.029921780729    -1.123126535148
    C            0.332543143332    -0.684543126749    -0.082879555475
    H            2.159077842487    -1.734024845232     0.471816007841
    H            1.696378314283    -0.439415729356     1.584458117847
    H            2.405542146600    -0.043978072581     0.014865015055
    C            1.727588796299    -0.730895560476     0.530593671895

*** Psi4 exiting successfully. Buy a developer a beer!
