                               Psi4 1.1 release

  ==> Input File <==

--------------------------------------------------------------------------

molecule phepyr {
  symmetry C1
  0 1
  C      1.885   -1.036   -0.112
  C      0.807   -0.463   0.561
  C      2.921   -1.631   0.608
  C      0.764   -0.484   1.955
  C      2.878   -1.652   2.002
  C      1.710   0.091   4.837
  C      1.755   -2.313   4.801
  C      1.666   0.016   6.220
  C      1.710   -2.281   6.186
  C      1.800   -1.079   2.676
  C      1.755   -1.100   4.122
  N      1.666   -1.143   6.915
  H      1.917   -1.021   -1.198
  H      -0.001   -0.002   0.000
  H      3.760   -2.079   0.084
  H      -0.084   -0.033   2.466
  H      3.693   -2.120   2.550
  H      1.707   1.057   4.342
  H      1.790   -3.263   4.277
  H      1.628   0.917   6.824
  H      1.710   -3.199   6.763
  units Angstrom
}

dih_string = "4 10 11 6 300"
set optking fixed_dihedral = $dih_string

optimize('MP2/aug-cc-PVTZ')
--------------------------------------------------------------------------

    Molecular point group: c1
  Charge       = 0
  Multiplicity = 1
  Basis Set: AUG-CC-PVTZ
    Blend: AUG-CC-PVTZ
  Basis Set: (AUG-CC-PVTZ AUX)
    Blend: AUG-CC-PVTZ-JKFIT
  @DF-RHF Final Energy:  -476.39657332913123
    Total Energy =                       -476.3965733291312290
  Basis Set: (AUG-CC-PVTZ AUX)
    Blend: AUG-CC-PVTZ-RI
    Molecular point group: c1
  Basis Set: AUG-CC-PVTZ
    Blend: AUG-CC-PVTZ
  Basis Set: (AUG-CC-PVTZ AUX)
    Blend: AUG-CC-PVTZ-JKFIT
  Basis Set: (AUG-CC-PVTZ AUX)
    Blend: AUG-CC-PVTZ-JKFIT
	 Reference Energy          =    -476.3965733291312290 [Eh]
	 Singles Energy            =      -0.0000000000000005 [Eh]
	 Same-Spin Energy          =      -0.5345269791398628 [Eh]
	 Opposite-Spin Energy      =      -1.6424259856416339 [Eh]
	 Correlation Energy        =      -2.1769529647814969 [Eh]
	 Total Energy              =    -478.5735262939127210 [Eh]
	 SCS Total Energy          =    -478.5456601716144860 [Eh]
  @DF-RHF Final Energy:  -476.40118112680983
    Total Energy =                       -476.4011811268098882
  @DF-RHF Final Energy:  -476.40163900568609
    Total Energy =                       -476.4016390056860928
  @DF-RHF Final Energy:  -476.40156777397647
    Total Energy =                       -476.4015677739764669
  Charge       = 0
  Multiplicity = 1
  Basis Set: AUG-CC-PVTZ
    Blend: AUG-CC-PVTZ
  Basis Set: (AUG-CC-PVTZ AUX)
    Blend: AUG-CC-PVTZ-JKFIT

    Orbital Energies (a.u.)
    -----------------------

    Doubly Occupied:

       1A    -15.562731     2A    -11.272666     3A    -11.272649
       4A    -11.264403     5A    -11.252092     6A    -11.243662
       7A    -11.243539     8A    -11.242561     9A    -11.242228
      10A    -11.241105    11A    -11.237472    12A    -11.237378
      13A     -1.259419    14A     -1.175025    15A     -1.107941
      16A     -1.035857    17A     -1.026458    18A     -1.018760
      19A     -0.880371    20A     -0.863625    21A     -0.834683
      22A     -0.808143    23A     -0.732385    24A     -0.687560
      25A     -0.671703    26A     -0.657113    27A     -0.634573
      28A     -0.633845    29A     -0.599834    30A     -0.595809
      31A     -0.582889    32A     -0.543905    33A     -0.525976
      34A     -0.510558    35A     -0.509146    36A     -0.500918
      37A     -0.418051    38A     -0.392550    39A     -0.351030
      40A     -0.345961    41A     -0.333162

  @DF-RHF Final Energy:  -476.40155709306134

   => Energetics <=

    Nuclear Repulsion Energy =            606.0199060812635707
    One-Electron Energy =               -1845.7434523253230054
    Two-Electron Energy =                 763.3219891509980926
    DFT Exchange-Correlation Energy =       0.0000000000000000
    Empirical Dispersion Energy =           0.0000000000000000
    PCM Polarization Energy =               0.0000000000000000
    EFP Energy =                            0.0000000000000000
    Total Energy =                       -476.4015570930613421
  Basis Set: (AUG-CC-PVTZ AUX)
    Blend: AUG-CC-PVTZ-RI
    Molecular point group: c1
  Basis Set: AUG-CC-PVTZ
    Blend: AUG-CC-PVTZ
  Basis Set: (AUG-CC-PVTZ AUX)
    Blend: AUG-CC-PVTZ-JKFIT
  Basis Set: (AUG-CC-PVTZ AUX)
    Blend: AUG-CC-PVTZ-JKFIT
	 Reference Energy          =    -476.4015570930613421 [Eh]
	 Singles Energy            =      -0.0000000000000003 [Eh]
	 Same-Spin Energy          =      -0.5338539920019698 [Eh]
	 Opposite-Spin Energy      =      -1.6404308327601760 [Eh]
	 Correlation Energy        =      -2.1742848247621462 [Eh]
	 Total Energy              =    -478.5758419178234817 [Eh]

	 ================> DF-SCS-MP2 Energies <==================
	-----------------------------------------------------------
	 SCS Same-Spin Scale       =       0.3333333333333333 [-]
	 SCS Opposite-Spin Scale   =       1.2000000000000000 [-]
	 SCS Same-Spin Energy      =      -0.1779513306673233 [Eh]
	 SCS Opposite-Spin Energy  =      -1.9685169993122111 [Eh]
	 SCS Correlation Energy    =      -2.1464683299795349 [Eh]
	 SCS Total Energy          =    -478.5480254230408832 [Eh]
	-----------------------------------------------------------

  -Total Gradient:
     Atom            X                  Y                   Z
    ------   -----------------  -----------------  -----------------
       1       -0.000015885861    -0.000006994896     0.000021435309
       2        0.000047301996    -0.000020263420    -0.000030214065
       3       -0.000023350707     0.000031902439    -0.000020241138
       4       -0.001466048736    -0.002610880296    -0.000074170914
       5       -0.000001419642    -0.000017414685     0.000048608256
       6        0.003056916849     0.000084808970     0.000097387032
       7       -0.000067553058    -0.000025902751    -0.000046079238
       8       -0.000244998931    -0.000066866746     0.000029470003
       9        0.000299638912     0.000060665815     0.000025425862
      10        0.003667214268     0.003902330634     0.000234664743
      11       -0.005212668784    -0.001364248491    -0.000233670131
      12       -0.000031683741     0.000014265104     0.000001815169
      13       -0.000001222607     0.000003416919    -0.000015483412
      14       -0.000015919551     0.000011122274    -0.000010947873
      15        0.000014012866    -0.000010499324    -0.000004953136
      16       -0.000012808100     0.000010726191     0.000002570095
      17        0.000012947546    -0.000003626814     0.000004721496
      18        0.000017870220     0.000015104531    -0.000015832962
      19       -0.000021938422    -0.000012950989    -0.000020581174
      20        0.000099374798     0.000008032867     0.000008208254
      21       -0.000099779315    -0.000002727330    -0.000002132185

  **** Optimization is complete! (in 5 steps) ****
    Final optimized geometry and variables:
    Molecular point group: c1

    Geometry (in Angstrom), charge = 0, multiplicity = 1:

    C            0.116037169202     0.039640500298    -3.543125387566
    C           -0.943415506480     0.646416416717    -2.881895006978
    C            1.125045740343    -0.575240496305    -2.813809016392
    C           -0.990886380018     0.642103493174    -1.495534975552
    C            1.075781412167    -0.581396779587    -1.427566594901
    C           -0.106237617247     1.168759603385     1.459929549342
    C            0.007125161719    -1.201262811706     1.403215283810
    C           -0.136421639287     1.084893639417     2.843420932677
    C           -0.025474034596    -1.186068308279     2.789041872105
    C            0.024139189072     0.038633769837    -0.755982569155
    C           -0.045262972670     0.001291246422     0.706893827557
    N           -0.097900103517    -0.068128319127     3.515212797765
    H            0.153538037821     0.043047731918    -4.621534577931
    H           -1.735658959275     1.114706301105    -3.445770890395
    H            1.949965352784    -1.048144571142    -3.324497863662
    H           -1.820257702224     1.100971896250    -0.977884622713
    H            1.861601441485    -1.053773665740    -0.856921613176
    H           -0.123837202527     2.131255232970     0.971016854542
    H            0.058429130060    -2.137892837212     0.868607556979
    H           -0.182368994480     1.984499988121     3.441224127439
    H            0.003038203421    -2.114068668871     3.342938335094

*** Psi4 exiting successfully. Buy a developer a beer!
