                               Psi4 1.1 release

  ==> Input File <==

--------------------------------------------------------------------------

molecule phepyr {
  symmetry C1
  0 1
  C      1.885   -1.036   -0.112
  C      0.807   -0.463   0.561
  C      2.921   -1.631   0.608
  C      0.764   -0.484   1.955
  C      2.878   -1.652   2.002
  C      0.900   -1.977   4.781
  C      2.568   -0.246   4.858
  C      0.896   -1.960   6.166
  C      2.488   -0.306   6.240
  C      1.800   -1.079   2.676
  C      1.755   -1.100   4.122
  N      1.671   -1.144   6.915
  H      1.917   -1.021   -1.198
  H      -0.001   -0.002   0.000
  H      3.760   -2.079   0.084
  H      -0.084   -0.033   2.466
  H      3.693   -2.120   2.550
  H      0.252   -2.660   4.241
  H      3.246   0.452   4.378
  H      0.249   -2.626   6.727
  H      3.101   0.340   6.860
  units Angstrom
}

dih_string = "4 10 11 6 75"
set optking fixed_dihedral = $dih_string

optimize('MP2/aug-cc-PVTZ')
--------------------------------------------------------------------------

    Molecular point group: c1
  Charge       = 0
  Multiplicity = 1
  Basis Set: AUG-CC-PVTZ
    Blend: AUG-CC-PVTZ
  Basis Set: (AUG-CC-PVTZ AUX)
    Blend: AUG-CC-PVTZ-JKFIT
  @DF-RHF Final Energy:  -476.39538389900258
    Total Energy =                       -476.3953838990025815
  Basis Set: (AUG-CC-PVTZ AUX)
    Blend: AUG-CC-PVTZ-RI
    Molecular point group: c1
  Basis Set: AUG-CC-PVTZ
    Blend: AUG-CC-PVTZ
  Basis Set: (AUG-CC-PVTZ AUX)
    Blend: AUG-CC-PVTZ-JKFIT
  Basis Set: (AUG-CC-PVTZ AUX)
    Blend: AUG-CC-PVTZ-JKFIT
	 Reference Energy          =    -476.3953838990025815 [Eh]
	 Singles Energy            =      -0.0000000000000001 [Eh]
	 Same-Spin Energy          =      -0.5342535803220094 [Eh]
	 Opposite-Spin Energy      =      -1.6423254992934757 [Eh]
	 Correlation Energy        =      -2.1765790796154851 [Eh]
	 Total Energy              =    -478.5719629786180462 [Eh]
	 SCS Total Energy          =    -478.5442590249287491 [Eh]
  @DF-RHF Final Energy:  -476.40005224263427
    Total Energy =                       -476.4000522426342741
  @DF-RHF Final Energy:  -476.40046005315583
    Total Energy =                       -476.4004600531558253
  @DF-RHF Final Energy:  -476.40043835890498
    Total Energy =                       -476.4004383589050349
  @DF-RHF Final Energy:  -476.40042246267336
    Total Energy =                       -476.4004224626734185
  @DF-RHF Final Energy:  -476.40043051481609
    Total Energy =                       -476.4004305148160938
  Charge       = 0
  Multiplicity = 1
  Basis Set: AUG-CC-PVTZ
    Blend: AUG-CC-PVTZ
  Basis Set: (AUG-CC-PVTZ AUX)
    Blend: AUG-CC-PVTZ-JKFIT

    Orbital Energies (a.u.)
    -----------------------

    Doubly Occupied:

       1A    -15.563242     2A    -11.272848     3A    -11.272830
       4A    -11.264234     5A    -11.251801     6A    -11.243105
       7A    -11.242973     8A    -11.241894     9A    -11.241689
      10A    -11.240312    11A    -11.237689    12A    -11.237630
      13A     -1.259751    14A     -1.174219    15A     -1.107560
      16A     -1.035104    17A     -1.026333    18A     -1.018736
      19A     -0.879593    20A     -0.860671    21A     -0.837357
      22A     -0.807887    23A     -0.731294    24A     -0.688683
      25A     -0.670392    26A     -0.654781    27A     -0.638087
      28A     -0.634164    29A     -0.598063    30A     -0.596757
      31A     -0.582628    32A     -0.542226    33A     -0.527167
      34A     -0.508198    35A     -0.507231    36A     -0.502658
      37A     -0.417928    38A     -0.383887    39A     -0.352288
      40A     -0.344105    41A     -0.340024

  @DF-RHF Final Energy:  -476.40043016798285

   => Energetics <=

    Nuclear Repulsion Energy =            605.5446171164044245
    One-Electron Energy =               -1844.8140513945972998
    Two-Electron Energy =                 762.8690041102099713
    DFT Exchange-Correlation Energy =       0.0000000000000000
    Empirical Dispersion Energy =           0.0000000000000000
    PCM Polarization Energy =               0.0000000000000000
    EFP Energy =                            0.0000000000000000
    Total Energy =                       -476.4004301679829041
  Basis Set: (AUG-CC-PVTZ AUX)
    Blend: AUG-CC-PVTZ-RI
    Molecular point group: c1
  Basis Set: AUG-CC-PVTZ
    Blend: AUG-CC-PVTZ
  Basis Set: (AUG-CC-PVTZ AUX)
    Blend: AUG-CC-PVTZ-JKFIT
  Basis Set: (AUG-CC-PVTZ AUX)
    Blend: AUG-CC-PVTZ-JKFIT
	 Reference Energy          =    -476.4004301679828473 [Eh]
	 Singles Energy            =      -0.0000000000000007 [Eh]
	 Same-Spin Energy          =      -0.5335090692414406 [Eh]
	 Opposite-Spin Energy      =      -1.6402379562413225 [Eh]
	 Correlation Energy        =      -2.1737470254827640 [Eh]
	 Total Energy              =    -478.5741771934656299 [Eh]

	 ================> DF-SCS-MP2 Energies <==================
	-----------------------------------------------------------
	 SCS Same-Spin Scale       =       0.3333333333333333 [-]
	 SCS Opposite-Spin Scale   =       1.2000000000000000 [-]
	 SCS Same-Spin Energy      =      -0.1778363564138135 [Eh]
	 SCS Opposite-Spin Energy  =      -1.9682855474895868 [Eh]
	 SCS Correlation Energy    =      -2.1461219039034014 [Eh]
	 SCS Total Energy          =    -478.5465520718862535 [Eh]
	-----------------------------------------------------------

  -Total Gradient:
     Atom            X                  Y                   Z
    ------   -----------------  -----------------  -----------------
       1        0.000020283118     0.000031634651    -0.000064194861
       2       -0.000026725194    -0.000020901179     0.000010317437
       3       -0.000002189468    -0.000019046580    -0.000000929795
       4        0.001080653103     0.001998514925     0.000092289301
       5        0.000041957036     0.000093731215     0.000019525041
       6        0.001476322089    -0.001328009099     0.000046361795
       7       -0.000038833347    -0.000105759387     0.000028390452
       8        0.000169339796    -0.000186552338     0.000002223024
       9       -0.000147723347     0.000119240326     0.000018540753
      10       -0.000857579179    -0.003798275866    -0.000187761930
      11       -0.001768470182     0.003235563563     0.000073488849
      12       -0.000005829559     0.000043793667    -0.000040254772
      13       -0.000002747583    -0.000004974371    -0.000000630642
      14       -0.000012359696    -0.000009118056     0.000025546185
      15        0.000004235943    -0.000019205375     0.000029156165
      16       -0.000012899900     0.000018462736    -0.000000214957
      17        0.000022655809    -0.000010078190    -0.000002675454
      18        0.000006063573    -0.000043805055    -0.000026624722
      19        0.000033707584     0.000009906595    -0.000019290972
      20       -0.000020450930     0.000043680342    -0.000003714092
      21        0.000040590344    -0.000048802521     0.000000453205

  **** Optimization is complete! (in 7 steps) ****
    Final optimized geometry and variables:
    Molecular point group: c1

    Geometry (in Angstrom), charge = 0, multiplicity = 1:

    C            0.121684790069     0.061894294671    -3.543695015885
    C           -0.969912613525     0.608086751871    -2.882232017335
    C            1.156156564693    -0.509901952851    -2.815353305742
    C           -1.028135512934     0.579488219533    -1.496050536635
    C            1.098264917935    -0.536776918998    -1.429176769126
    C           -0.892523496363    -0.859802891296     1.405302829006
    C            0.790812432021     0.812579510220     1.459094477822
    C           -0.879783815678    -0.847196186182     2.791931066538
    C            0.732112999440     0.756814111201     2.843387869133
    C            0.000757591450    -0.001768580688    -0.759155273501
    C           -0.045049879456    -0.006230386879     0.708981566946
    N           -0.086031028742    -0.055347563673     3.516478757301
    H            0.167062509127     0.083721628549    -4.621568237940
    H           -1.772194179548     1.060870687091    -3.444614236869
    H            2.007224216568    -0.934287830760    -3.325828957034
    H           -1.871876268207     1.009854652505    -0.977269050021
    H            1.900381581371    -0.981072540394    -0.858640766796
    H           -1.550809415967    -1.528149006464     0.870804696195
    H            1.472549771821     1.490326297991     0.967493098791
    H           -1.533181156721    -1.505337423456     3.347414844460
    H            1.371442623302     1.392188416039     3.440287817610

*** Psi4 exiting successfully. Buy a developer a beer!
