                               Psi4 1.1 release

  ==> Input File <==

--------------------------------------------------------------------------

memory 5 Gb

molecule phepyrOH_anion {
  symmetry C1
  -1 1
  C      1.885   -1.036   -0.112
  C      2.878   -1.652   2.002
  C      0.807   -0.463   0.561
  C      1.800   -1.079   2.676
  C      3.830   -3.271   -0.983
  C      5.329   -1.753   0.128
  C      4.934   -3.805   -1.627
  C      6.366   -2.356   -0.566
  C      2.921   -1.631   0.608
  C      4.040   -2.226   -0.090
  C      0.764   -0.484   1.955
  N      6.201   -3.373   -1.441
  O      -0.227   0.042   2.574
  H      1.904   -1.011   -1.199
  H      3.678   -2.112   2.577
  H      0.011   -0.006   -0.025
  H      1.791   -1.108   3.764
  H      2.838   -3.666   -1.179
  H      5.531   -0.940   0.817
  H      4.823   -4.621   -2.334
  H      7.391   -2.024   -0.431
  units Angstrom
}

dih_string = "1 9 10 5 300"
set optking fixed_dihedral = $dih_string

optimize('MP2/aug-cc-PVTZ')
--------------------------------------------------------------------------

    Molecular point group: c1
  Charge       = -1
  Multiplicity = 1
  Basis Set: AUG-CC-PVTZ
    Blend: AUG-CC-PVTZ
  Basis Set: (AUG-CC-PVTZ AUX)
    Blend: AUG-CC-PVTZ-JKFIT
  @DF-RHF Final Energy:  -550.71178330683381
    Total Energy =                       -550.7117833068338086
  Basis Set: (AUG-CC-PVTZ AUX)
    Blend: AUG-CC-PVTZ-RI
    Molecular point group: c1
  Basis Set: AUG-CC-PVTZ
    Blend: AUG-CC-PVTZ
  Basis Set: (AUG-CC-PVTZ AUX)
    Blend: AUG-CC-PVTZ-JKFIT
  Basis Set: (AUG-CC-PVTZ AUX)
    Blend: AUG-CC-PVTZ-JKFIT
	 Reference Energy          =    -550.7117833068338086 [Eh]
	 Singles Energy            =      -0.0000000000000001 [Eh]
	 Same-Spin Energy          =      -0.6134525830317273 [Eh]
	 Opposite-Spin Energy      =      -1.8375215162057417 [Eh]
	 Correlation Energy        =      -2.4509740992374689 [Eh]
	 Total Energy              =    -553.1627574060712504 [Eh]
	 SCS Total Energy          =    -553.1212933206246589 [Eh]
  @DF-RHF Final Energy:  -550.71822289593865
    Total Energy =                       -550.7182228959386521
  @DF-RHF Final Energy:  -550.72213812879079
    Total Energy =                       -550.7221381287907889
  @DF-RHF Final Energy:  -550.72357765291861
    Total Energy =                       -550.7235776529186069
  @DF-RHF Final Energy:  -550.72395214178391
    Total Energy =                       -550.7239521417839114
  @DF-RHF Final Energy:  -550.72413590876135
    Total Energy =                       -550.7241359087613546
  @DF-RHF Final Energy:  -550.72423670028263
    Total Energy =                       -550.7242367002826313
    Molecular point group: c1
  Charge       = -1
  Multiplicity = 1
  Basis Set: AUG-CC-PVTZ
    Blend: AUG-CC-PVTZ
  Basis Set: (AUG-CC-PVTZ AUX)
    Blend: AUG-CC-PVTZ-JKFIT

    Orbital Energies (a.u.)
    -----------------------

    Doubly Occupied:

       1A    -20.311833     2A    -15.453474     3A    -11.166542
       4A    -11.166489     5A    -11.146649     6A    -11.127324
       7A    -11.120867     8A    -11.120234     9A    -11.098124
      10A    -11.097332    11A    -11.074316    12A    -11.059180
      13A    -11.058399    14A     -1.148781    15A     -1.142526
      16A     -1.016286    17A     -0.957873    18A     -0.923218
      19A     -0.863860    20A     -0.836681    21A     -0.746427
      22A     -0.735223    23A     -0.673845    24A     -0.649025
      25A     -0.595421    26A     -0.554170    27A     -0.540580
      28A     -0.511629    29A     -0.488133    30A     -0.484288
      31A     -0.480334    32A     -0.434289    33A     -0.432238
      34A     -0.417201    35A     -0.404565    36A     -0.374991
      37A     -0.369929    38A     -0.347710    39A     -0.312898
      40A     -0.304864    41A     -0.253868    42A     -0.241784
      43A     -0.219601    44A     -0.198194    45A     -0.107158

  @DF-RHF Final Energy:  -550.72424907797529

   => Energetics <=

    Nuclear Repulsion Energy =            682.1065484380915223
    One-Electron Energy =               -2114.1248866321980131
    Two-Electron Energy =                 881.2940891161312038
    DFT Exchange-Correlation Energy =       0.0000000000000000
    Empirical Dispersion Energy =           0.0000000000000000
    PCM Polarization Energy =               0.0000000000000000
    EFP Energy =                            0.0000000000000000
    Total Energy =                       -550.7242490779752870
  Basis Set: (AUG-CC-PVTZ AUX)
    Blend: AUG-CC-PVTZ-RI
    Molecular point group: c1

    Geometry (in Angstrom), charge = -1, multiplicity = 1:

       Center              X                  Y                   Z               Mass
    ------------   -----------------  -----------------  -----------------  -----------------
           C         -1.384049496485     0.624715475182    -0.546268120640    12.000000000000
           C         -0.270617966935     0.179464870923     1.520135493923    12.000000000000
           C         -2.412979861987     1.241885529203     0.133634458316    12.000000000000
           C         -1.305160191902     0.773354279707     2.211730526052    12.000000000000
           C          0.726551960355    -1.483975368709    -1.558949284058    12.000000000000
           C          2.155104648479    -0.093677509768    -0.294118068626    12.000000000000
           C          1.852325743802    -1.999968802838    -2.177420806137    12.000000000000
           C          3.224960735285    -0.676804113842    -0.951766385851    12.000000000000
           C         -0.296811965209     0.047486122789     0.124232943460    12.000000000000
           C          0.843971040808    -0.472846003777    -0.599943599345    12.000000000000
           C         -2.451788876062     1.345860551568     1.564694287278    12.000000000000
           N          3.104684554391    -1.619541159352    -1.894488785133    14.003074004780
           O         -3.400429981775     1.895707098456     2.195495454235    15.994914619560
           H         -1.403035594937     0.595609061981    -1.630135252866     1.007825032070
           H          0.570694911555    -0.230079604682     2.067631605025     1.007825032070
           H         -3.233488467359     1.688636215570    -0.412100041318     1.007825032070
           H         -1.277583997928     0.824198664580     3.292468831675     1.007825032070
           H         -0.253167996573    -1.862143388589    -1.813102223734     1.007825032070
           H          2.326416889327     0.671369321845     0.448941928876     1.007825032070
           H          1.749617900965    -2.777750614018    -2.923660645341     1.007825032070
           H          4.235690673445    -0.367492318411    -0.716480793070     1.007825032070

  Basis Set: AUG-CC-PVTZ
    Blend: AUG-CC-PVTZ
  Basis Set: (AUG-CC-PVTZ AUX)
    Blend: AUG-CC-PVTZ-JKFIT
  Basis Set: (AUG-CC-PVTZ AUX)
    Blend: AUG-CC-PVTZ-JKFIT
	 Reference Energy          =    -550.7242490779752870 [Eh]
	 Singles Energy            =      -0.0000000000000003 [Eh]
	 Same-Spin Energy          =      -0.6125115764095143 [Eh]
	 Opposite-Spin Energy      =      -1.8363939633643258 [Eh]
	 Correlation Energy        =      -2.4489055397738406 [Eh]
	 Total Energy              =    -553.1731546177491055 [Eh]

	 ================> DF-SCS-MP2 Energies <==================
	-----------------------------------------------------------
	 SCS Same-Spin Scale       =       0.3333333333333333 [-]
	 SCS Opposite-Spin Scale   =       1.2000000000000000 [-]
	 SCS Same-Spin Energy      =      -0.2041705254698381 [Eh]
	 SCS Opposite-Spin Energy  =      -2.2036727560371907 [Eh]
	 SCS Correlation Energy    =      -2.4078432815070294 [Eh]
	 SCS Total Energy          =    -553.1320923594822716 [Eh]
	-----------------------------------------------------------

  -Total Gradient:
     Atom            X                  Y                   Z
    ------   -----------------  -----------------  -----------------
       1        0.003135649704     0.006307239621     0.000444176875
       2       -0.000002525987    -0.000289548640     0.000352857223
       3        0.000113374120    -0.000095999525    -0.000241114398
       4        0.000080414812    -0.000073257730    -0.000116930768
       5        0.001044525939    -0.005082128421     0.005045952051
       6        0.000190518183     0.000138436206    -0.000105353991
       7       -0.000106848683    -0.000001954438     0.000007523884
       8       -0.000064634666     0.000122808316     0.000163512785
       9       -0.004150328838    -0.011526838035     0.001446397736
      10       -0.000211278040     0.010352107635    -0.007303828540
      11       -0.000185822739     0.000103957428     0.000277073359
      12        0.000122861029    -0.000108098260    -0.000132514897
      13        0.000076882610    -0.000031431131    -0.000040014193
      14        0.000054533272    -0.000002331453    -0.000068364052
      15        0.000088466929     0.000055139560    -0.000028719905
      16       -0.000082086735     0.000034196637     0.000057814220
      17       -0.000066923254     0.000047487828     0.000166528253
      18       -0.000077788987     0.000008668519    -0.000001142053
      19       -0.000018275587     0.000055180037     0.000102036440
      20       -0.000021153440    -0.000059754817    -0.000047501029
      21        0.000080440340     0.000046120664     0.000021611004

*** Psi4 exiting successfully. Buy a developer a beer!
