                               Psi4 1.1 release

  ==> Input File <==

--------------------------------------------------------------------------

memory 5 Gb

molecule phepyrFOH_neutral {
  symmetry C1
  0 1
  C      1.885   -1.036   -0.112
  C      0.807   -0.463   0.561
  C      3.825   -3.269   -0.988
  C      5.328   -1.753   0.119
  C      1.800   -1.079   2.676
  C      4.927   -3.802   -1.637
  C      6.363   -2.354   -0.579
  C      2.921   -1.631   0.608
  C      4.038   -2.225   -0.095
  C      0.764   -0.484   1.955
  C      2.878   -1.652   2.002
  N      6.195   -3.370   -1.455
  O      -0.289   0.076   2.612
  F      3.866   -2.220   2.709
  H      1.904   -1.012   -1.199
  H      0.002   -0.002   -0.006
  H      2.833   -3.663   -1.183
  H      5.532   -0.940   0.809
  H      1.772   -1.099   3.762
  H      4.814   -4.616   -2.345
  H      7.387   -2.023   -0.446
  H      -0.027   0.924   3.005
  units Angstrom
}

dih_string = "2 10 13 22 255"
set optking fixed_dihedral = $dih_string

optimize('MP2/aug-cc-PVTZ')
--------------------------------------------------------------------------

    Molecular point group: c1
  Charge       = 0
  Multiplicity = 1
  Basis Set: AUG-CC-PVTZ
    Blend: AUG-CC-PVTZ
  Basis Set: (AUG-CC-PVTZ AUX)
    Blend: AUG-CC-PVTZ-JKFIT

    Orbital Energies (a.u.)
    -----------------------

    Doubly Occupied:

       1A    -26.325735     2A    -20.596789     3A    -15.566708
       4A    -11.346535     5A    -11.318822     6A    -11.276081
       7A    -11.275416     8A    -11.266842     9A    -11.263122
      10A    -11.257543    11A    -11.253206    12A    -11.247448
      13A    -11.241117    14A    -11.240038    15A     -1.644095
      16A     -1.414677    17A     -1.251780    18A     -1.181780
      19A     -1.110515    20A     -1.040462    21A     -1.035374
      22A     -1.018758    23A     -0.889676    24A     -0.874389
      25A     -0.853308    26A     -0.825569    27A     -0.772398
      28A     -0.735844    29A     -0.727880    30A     -0.710468
      31A     -0.700763    32A     -0.665562    33A     -0.661989
      34A     -0.643848    35A     -0.635073    36A     -0.629368
      37A     -0.603619    38A     -0.600020    39A     -0.560726
      40A     -0.539128    41A     -0.533568    42A     -0.524489
      43A     -0.509091    44A     -0.496630    45A     -0.420715
      46A     -0.390473    47A     -0.357937    48A     -0.350188
      49A     -0.333442

  @DF-RHF Final Energy:  -650.16991264302760

   => Energetics <=

    Nuclear Repulsion Energy =            813.8623465992405954
    One-Electron Energy =               -2502.6265025029460958
    Two-Electron Energy =                1038.5942432606780130
    DFT Exchange-Correlation Energy =       0.0000000000000000
    Empirical Dispersion Energy =           0.0000000000000000
    PCM Polarization Energy =               0.0000000000000000
    EFP Energy =                            0.0000000000000000
    Total Energy =                       -650.1699126430276010
  Basis Set: (AUG-CC-PVTZ AUX)
    Blend: AUG-CC-PVTZ-RI
    Molecular point group: c1

    Geometry (in Angstrom), charge = 0, multiplicity = 1:

       Center              X                  Y                   Z               Mass
    ------------   -----------------  -----------------  -----------------  -----------------
           C         -1.322532379437     0.749979446186    -0.796477759054    12.000000000000
           C         -2.400532379437     1.322979446186    -0.123477759054    12.000000000000
           C          0.617467620563    -1.483020553814    -1.672477759054    12.000000000000
           C          2.120467620563     0.032979446186    -0.565477759054    12.000000000000
           C         -1.407532379437     0.706979446186     1.991522240946    12.000000000000
           C          1.719467620563    -2.016020553814    -2.321477759054    12.000000000000
           C          3.155467620563    -0.568020553814    -1.263477759054    12.000000000000
           C         -0.286532379437     0.154979446186    -0.076477759054    12.000000000000
           C          0.830467620563    -0.439020553814    -0.779477759054    12.000000000000
           C         -2.443532379437     1.301979446186     1.270522240946    12.000000000000
           C         -0.329532379437     0.133979446186     1.317522240946    12.000000000000
           N          2.987467620563    -1.584020553814    -2.139477759054    14.003074004780
           O         -3.496532379437     1.861979446186     1.927522240946    15.994914619560
           F          0.658467620563    -0.434020553814     2.024522240946    18.998403224000
           H         -1.303532379437     0.773979446186    -1.883477759054     1.007825032070
           H         -3.205532379437     1.783979446186    -0.690477759054     1.007825032070
           H         -0.374532379437    -1.877020553814    -1.867477759054     1.007825032070
           H          2.324467620563     0.845979446186     0.124522240946     1.007825032070
           H         -1.435532379437     0.686979446186     3.077522240946     1.007825032070
           H          1.606467620563    -2.830020553814    -3.029477759054     1.007825032070
           H          4.179467620563    -0.237020553814    -1.130477759054     1.007825032070
           H         -3.234532379437     2.709979446186     2.320522240946     1.007825032070

  Basis Set: AUG-CC-PVTZ
    Blend: AUG-CC-PVTZ
  Basis Set: (AUG-CC-PVTZ AUX)
    Blend: AUG-CC-PVTZ-JKFIT
  Basis Set: (AUG-CC-PVTZ AUX)
    Blend: AUG-CC-PVTZ-JKFIT
	 Reference Energy          =    -650.1699126430276010 [Eh]
	 Singles Energy            =      -0.0000000000000005 [Eh]
	 Same-Spin Energy          =      -0.6770736635105545 [Eh]
	 Opposite-Spin Energy      =      -2.0187855212440162 [Eh]
	 Correlation Energy        =      -2.6958591847545712 [Eh]
	 Total Energy              =    -652.8657718277821687 [Eh]

	 ================> DF-SCS-MP2 Energies <==================
	-----------------------------------------------------------
	 SCS Same-Spin Scale       =       0.3333333333333333 [-]
	 SCS Opposite-Spin Scale   =       1.2000000000000000 [-]
	 SCS Same-Spin Energy      =      -0.2256912211701848 [Eh]
	 SCS Opposite-Spin Energy  =      -2.4225426254928193 [Eh]
	 SCS Correlation Energy    =      -2.6482338466630044 [Eh]
	 SCS Total Energy          =    -652.8181464896906618 [Eh]
	-----------------------------------------------------------

  -Total Gradient:
     Atom            X                  Y                   Z
    ------   -----------------  -----------------  -----------------
       1        0.010324179945    -0.001225356875    -0.011683861083
       2        0.000872678430     0.001487738750     0.003153362809
       3       -0.007026548113    -0.001072192439     0.002909972081
       4       -0.003710676781     0.005780133903     0.003625595779
       5       -0.006228745983     0.004210345204    -0.001883813070
       6       -0.014076904827    -0.000967475201     0.002586827162
       7       -0.003121789834     0.009477796631     0.008781892508
       8       -0.000514299965     0.000262325021    -0.002437984229
       9       -0.001863432753     0.001195028184    -0.000615403927
      10       -0.017882421444     0.001395835024     0.008364110035
      11        0.021199055075    -0.014609497582     0.004902261349
      12        0.013569885509    -0.006770995023    -0.008487246740
      13        0.009488558521    -0.010794659031    -0.007059449293
      14        0.001470620320    -0.000322974298     0.002637050168
      15       -0.003303118803     0.001450521174    -0.006064968950
      16       -0.003250300654     0.001439026228    -0.005553186698
      17       -0.003120549464    -0.002567142371    -0.002745375422
      18        0.002853007370     0.003670087578     0.002769592774
      19        0.000629107124     0.000066312980     0.005368773913
      20        0.000404334720    -0.001798843994    -0.002010811908
      21        0.002505157112     0.000172476754     0.000074673714
      22        0.000782204483     0.009521509383     0.003367989026

*** Psi4 exiting successfully. Buy a developer a beer!
