                               Psi4 1.1 release

  ==> Input File <==

--------------------------------------------------------------------------

memory 5 Gb

molecule phepyrFOH_anion {
  symmetry C1
  -1 1
  C      1.885   -1.036   -0.112
  C      0.807   -0.463   0.561
  C      4.247   -1.940   -1.440
  C      4.908   -3.079   0.573
  C      1.800   -1.079   2.676
  C      5.331   -2.532   -2.067
  C      5.962   -3.621   -0.145
  C      2.921   -1.631   0.608
  C      4.038   -2.224   -0.095
  C      0.764   -0.484   1.955
  C      2.878   -1.652   2.002
  N      6.197   -3.368   -1.452
  O      -0.227   0.043   2.574
  F      3.866   -2.220   2.709
  H      1.904   -1.013   -1.200
  H      0.011   -0.007   -0.025
  H      3.591   -1.277   -1.994
  H      4.776   -3.324   1.622
  H      1.791   -1.109   3.764
  H      5.539   -2.342   -3.115
  H      6.668   -4.294   0.330
  units Angstrom
}

dih_string = "1 8 9 3 15"
set optking { fixed_dihedral = $dih_string
              dynamic_level = 1
              geom_maxiter = 250
              print_trajectory_xyz_file = True }

optimize('MP2/aug-cc-PVTZ')
--------------------------------------------------------------------------

    Molecular point group: c1
  Charge       = -1
  Multiplicity = 1
  Basis Set: AUG-CC-PVTZ
    Blend: AUG-CC-PVTZ
  Basis Set: (AUG-CC-PVTZ AUX)
    Blend: AUG-CC-PVTZ-JKFIT
  @DF-RHF Final Energy:  -649.60175506713051
    Total Energy =                       -649.6017550671303979
  Basis Set: (AUG-CC-PVTZ AUX)
    Blend: AUG-CC-PVTZ-RI
    Molecular point group: c1
  Basis Set: AUG-CC-PVTZ
    Blend: AUG-CC-PVTZ
  Basis Set: (AUG-CC-PVTZ AUX)
    Blend: AUG-CC-PVTZ-JKFIT
  Basis Set: (AUG-CC-PVTZ AUX)
    Blend: AUG-CC-PVTZ-JKFIT
	 Reference Energy          =    -649.6017550671305116 [Eh]
	 Singles Energy            =      -0.0000000000000001 [Eh]
	 Same-Spin Energy          =      -0.6876355372691498 [Eh]
	 Opposite-Spin Energy      =      -2.0283444849374508 [Eh]
	 Correlation Energy        =      -2.7159800222066006 [Eh]
	 Total Energy              =    -652.3177350893371340 [Eh]
	 SCS Total Energy          =    -652.2649802948118349 [Eh]
  @DF-RHF Final Energy:  -649.61135104770915
    Total Energy =                       -649.6113510477091495
  @DF-RHF Final Energy:  -649.61791373779624
    Total Energy =                       -649.6179137377962434
  @DF-RHF Final Energy:  -649.62193365179814
    Total Energy =                       -649.6219336517981446
  @DF-RHF Final Energy:  -649.62402638953085
    Total Energy =                       -649.6240263895308544
  @DF-RHF Final Energy:  -649.62507068596562
    Total Energy =                       -649.6250706859655111
  @DF-RHF Final Energy:  -649.62561955230467
    Total Energy =                       -649.6256195523046699
  @DF-RHF Final Energy:  -649.62507068591185
    Total Energy =                       -649.6250706859118509
  @DF-RHF Final Energy:  -649.62574686833500
    Total Energy =                       -649.6257468683349998
  @DF-RHF Final Energy:  -649.62591329513532
    Total Energy =                       -649.6259132951352058
  @DF-RHF Final Energy:  -649.62592898377818
    Total Energy =                       -649.6259289837780670
  @DF-RHF Final Energy:  -649.62594358206650
    Total Energy =                       -649.6259435820666113
  Charge       = -1
  Multiplicity = 1
  Basis Set: AUG-CC-PVTZ
    Blend: AUG-CC-PVTZ
  Basis Set: (AUG-CC-PVTZ AUX)
    Blend: AUG-CC-PVTZ-JKFIT

    Orbital Energies (a.u.)
    -----------------------

    Doubly Occupied:

       1A    -26.180439     2A    -20.333805     3A    -15.444001
       4A    -11.197431     5A    -11.161246     6A    -11.159569
       7A    -11.153130     8A    -11.149024     9A    -11.116014
      10A    -11.113915    11A    -11.111205    12A    -11.091461
      13A    -11.072378    14A    -11.070090    15A     -1.493296
      16A     -1.165852    17A     -1.142150    18A     -1.024826
      19A     -0.967394    20A     -0.917378    21A     -0.880231
      22A     -0.853966    23A     -0.745721    24A     -0.741873
      25A     -0.695554    26A     -0.678853    27A     -0.608545
      28A     -0.582036    29A     -0.567444    30A     -0.562260
      31A     -0.543147    32A     -0.523794    33A     -0.509813
      34A     -0.479372    35A     -0.475589    36A     -0.458960
      37A     -0.438526    38A     -0.433677    39A     -0.400949
      40A     -0.394062    41A     -0.391520    42A     -0.365589
      43A     -0.330388    44A     -0.307875    45A     -0.254469
      46A     -0.241582    47A     -0.236894    48A     -0.211655
      49A     -0.121165

  @DF-RHF Final Energy:  -649.62593645537561

   => Energetics <=

    Nuclear Repulsion Energy =            796.4273076188208051
    One-Electron Energy =               -2481.9062648270160025
    Two-Electron Energy =                1035.8530207528194751
    DFT Exchange-Correlation Energy =       0.0000000000000000
    Empirical Dispersion Energy =           0.0000000000000000
    PCM Polarization Energy =               0.0000000000000000
    EFP Energy =                            0.0000000000000000
    Total Energy =                       -649.6259364553757223
  Basis Set: (AUG-CC-PVTZ AUX)
    Blend: AUG-CC-PVTZ-RI
    Molecular point group: c1
  Basis Set: AUG-CC-PVTZ
    Blend: AUG-CC-PVTZ
  Basis Set: (AUG-CC-PVTZ AUX)
    Blend: AUG-CC-PVTZ-JKFIT
  Basis Set: (AUG-CC-PVTZ AUX)
    Blend: AUG-CC-PVTZ-JKFIT
	 Reference Energy          =    -649.6259364553756086 [Eh]
	 Singles Energy            =      -0.0000000000000005 [Eh]
	 Same-Spin Energy          =      -0.6847252030535961 [Eh]
	 Opposite-Spin Energy      =      -2.0253809437602821 [Eh]
	 Correlation Energy        =      -2.7101061468138785 [Eh]
	 Total Energy              =    -652.3360426021895364 [Eh]

	 ================> DF-SCS-MP2 Energies <==================
	-----------------------------------------------------------
	 SCS Same-Spin Scale       =       0.3333333333333333 [-]
	 SCS Opposite-Spin Scale   =       1.2000000000000000 [-]
	 SCS Same-Spin Energy      =      -0.2282417343511987 [Eh]
	 SCS Opposite-Spin Energy  =      -2.4304571325123385 [Eh]
	 SCS Correlation Energy    =      -2.6586988668635376 [Eh]
	 SCS Total Energy          =    -652.2846353222391826 [Eh]
	-----------------------------------------------------------

  -Total Gradient:
     Atom            X                  Y                   Z
    ------   -----------------  -----------------  -----------------
       1        0.000535192558     0.000857245040     0.000019479979
       2       -0.000021244648     0.000007340010     0.000048555431
       3       -0.000570296001    -0.000796167068    -0.000294629641
       4       -0.000052444996     0.000059035839     0.000018261595
       5       -0.000036219697     0.000062013434     0.000048214981
       6       -0.000110525602     0.000049402951    -0.000027721491
       7        0.000008721332    -0.000013470836    -0.000034941973
       8       -0.001031665322    -0.001690857045    -0.000183882664
       9        0.001156353981     0.001598620747     0.000492293794
      10        0.000094889818    -0.000064219755    -0.000078600470
      11       -0.000101036226    -0.000067301056    -0.000106766068
      12        0.000063691068    -0.000030053609     0.000045127061
      13       -0.000028545068     0.000019293640     0.000009278642
      14        0.000083271785    -0.000001933798     0.000051235724
      15        0.000001922677     0.000014692643    -0.000012564538
      16       -0.000011571319     0.000008976360     0.000007205591
      17       -0.000007418924     0.000007896520    -0.000010979446
      18        0.000015147768    -0.000014007214    -0.000005662318
      19        0.000006059638    -0.000001975609     0.000003574620
      20        0.000011556348     0.000000597140     0.000002798744
      21       -0.000005839181    -0.000005128328     0.000009722454

  **** Optimization is complete! (in 11 steps) ****
    Final optimized geometry and variables:
    Molecular point group: c1

    Geometry (in Angstrom), charge = -1, multiplicity = 1:

    C           -1.341450039827     0.741754970855    -0.731182712047
    C           -2.421932469399     1.320779327447    -0.115996398544
    C            1.089263523049    -0.170324085050    -2.091804709715
    C            1.762208009251    -1.345240641181    -0.165633402561
    C           -1.469786643159     0.769755700022     2.012623439520
    C            2.140716118424    -0.761457303638    -2.765188601392
    C            2.787659087463    -1.885001704573    -0.921247249649
    C           -0.272732582482     0.136453030822    -0.035581622607
    C            0.846656778293    -0.444326753668    -0.735127341865
    C           -2.562193771415     1.378332723681     1.312684253522
    C           -0.417711060309     0.195399357537     1.356918085012
    N            3.007837773222    -1.620741714796    -2.214557621670
    O           -3.545937522586     1.907756428038     1.894144587429
    F            0.579326976386    -0.319387176228     2.145907264539
    H           -1.330981846316     0.716130872073    -1.811544563654
    H           -3.217553203632     1.748555935444    -0.709743160424
    H            0.468848500570     0.530465944088    -2.627312508404
    H            1.667384811943    -1.638895461969     0.864423867436
    H           -1.475430911041     0.772825624743     3.091702066151
    H            2.301540380728    -0.525713451261    -3.809861034791
    H            3.474756286379    -2.580408218495    -0.455400764369

*** Psi4 exiting successfully. Buy a developer a beer!
