                               Psi4 1.1 release

  ==> Input File <==

--------------------------------------------------------------------------

memory 1000 mb

molecule butane {
  symmetry C1
  0 1
  H      5.561   2.354   -8.427
  H      4.257   3.338   -7.806
  H      4.858   1.991   -6.870
  C      4.655   2.345   -7.858
  H      2.725   1.407   -7.967
  H      3.427   1.771   -9.525
  C      3.631   1.416   -8.537
  H      3.665   -0.647   -7.940
  H      4.104   -0.384   -9.610
  C      4.203   -0.012   -8.612
  H      6.088   -0.983   -8.270
  H      5.791   0.381   -7.220
  H      6.230   0.644   -8.890
  C      5.691   0.009   -8.218
  units Angstrom
}

dih_string = "14 10 7 4 350"
set optking fixed_dihedral = $dih_string

optimize('MP2/aug-cc-pvtz')
--------------------------------------------------------------------------

    Molecular point group: c1
  Charge       = 0
  Multiplicity = 1
  Basis Set: AUG-CC-PVTZ
    Blend: AUG-CC-PVTZ
  Basis Set: (AUG-CC-PVTZ AUX)
    Blend: AUG-CC-PVTZ-JKFIT
  @DF-RHF Final Energy:  -157.33190005818614
    Total Energy =                       -157.3319000581861360
  Basis Set: (AUG-CC-PVTZ AUX)
    Blend: AUG-CC-PVTZ-RI
    Molecular point group: c1
  Basis Set: AUG-CC-PVTZ
    Blend: AUG-CC-PVTZ
  Basis Set: (AUG-CC-PVTZ AUX)
    Blend: AUG-CC-PVTZ-JKFIT
  Basis Set: (AUG-CC-PVTZ AUX)
    Blend: AUG-CC-PVTZ-JKFIT
	 Reference Energy          =    -157.3319000581861360 [Eh]
	 Singles Energy            =      -0.0000000000000002 [Eh]
	 Same-Spin Energy          =      -0.1674945383434610 [Eh]
	 Opposite-Spin Energy      =      -0.6422852556395461 [Eh]
	 Correlation Energy        =      -0.8097797939830073 [Eh]
	 Total Energy              =    -158.1416798521691476 [Eh]
	 SCS Total Energy          =    -158.1584738777347354 [Eh]
  @DF-RHF Final Energy:  -157.34183069589778
    Total Energy =                       -157.3418306958977837
  @DF-RHF Final Energy:  -157.34492323898385
    Total Energy =                       -157.3449232389838528
  @DF-RHF Final Energy:  -157.34620866194609
    Total Energy =                       -157.3462086619460933
  @DF-RHF Final Energy:  -157.34671716554612
    Total Energy =                       -157.3467171655461243
  @DF-RHF Final Energy:  -157.34676974890004
    Total Energy =                       -157.3467697489000443
  Charge       = 0
  Multiplicity = 1
  Basis Set: AUG-CC-PVTZ
    Blend: AUG-CC-PVTZ
  Basis Set: (AUG-CC-PVTZ AUX)
    Blend: AUG-CC-PVTZ-JKFIT

    Orbital Energies (a.u.)
    -----------------------

    Doubly Occupied:

       1A    -11.211885     2A    -11.211320     3A    -11.205206
       4A    -11.205200     5A     -1.069065     6A     -0.976060
       7A     -0.878802     8A     -0.768451     9A     -0.636190
      10A     -0.615869    11A     -0.565632    12A     -0.540147
      13A     -0.524334    14A     -0.512997    15A     -0.463322
      16A     -0.457881    17A     -0.443876

  @DF-RHF Final Energy:  -157.34679597702669

   => Energetics <=

    Nuclear Repulsion Energy =            133.5283839489871980
    One-Electron Energy =                -475.1778856169123628
    Two-Electron Energy =                 184.3027056908984775
    DFT Exchange-Correlation Energy =       0.0000000000000000
    Empirical Dispersion Energy =           0.0000000000000000
    PCM Polarization Energy =               0.0000000000000000
    EFP Energy =                            0.0000000000000000
    Total Energy =                       -157.3467959770266873
  Basis Set: (AUG-CC-PVTZ AUX)
    Blend: AUG-CC-PVTZ-RI
    Molecular point group: c1
  Basis Set: AUG-CC-PVTZ
    Blend: AUG-CC-PVTZ
  Basis Set: (AUG-CC-PVTZ AUX)
    Blend: AUG-CC-PVTZ-JKFIT
  Basis Set: (AUG-CC-PVTZ AUX)
    Blend: AUG-CC-PVTZ-JKFIT
	 Reference Energy          =    -157.3467959770266873 [Eh]
	 Singles Energy            =      -0.0000000000000000 [Eh]
	 Same-Spin Energy          =      -0.1657525118053617 [Eh]
	 Opposite-Spin Energy      =      -0.6406783930588222 [Eh]
	 Correlation Energy        =      -0.8064309048641840 [Eh]
	 Total Energy              =    -158.1532268818908733 [Eh]

	 ================> DF-SCS-MP2 Energies <==================
	-----------------------------------------------------------
	 SCS Same-Spin Scale       =       0.3333333333333333 [-]
	 SCS Opposite-Spin Scale   =       1.2000000000000000 [-]
	 SCS Same-Spin Energy      =      -0.0552508372684539 [Eh]
	 SCS Opposite-Spin Energy  =      -0.7688140716705867 [Eh]
	 SCS Correlation Energy    =      -0.8240649089390406 [Eh]
	 SCS Total Energy          =    -158.1708608859657375 [Eh]
	-----------------------------------------------------------

  -Total Gradient:
     Atom            X                  Y                   Z
    ------   -----------------  -----------------  -----------------
       1       -0.000003241929    -0.000012294259    -0.000002950941
       2       -0.000003566055     0.000026540841     0.000002315634
       3        0.000005455569    -0.000008318339     0.000014139259
       4        0.000961760696     0.000541234899    -0.002559311105
       5       -0.000021189275     0.000003926244     0.000013385609
       6       -0.000020489656     0.000002053412    -0.000038976471
       7       -0.001538383235    -0.001012306106     0.004834193700
       8       -0.000033418748    -0.000021904976     0.000019948330
       9       -0.000002652841    -0.000014954143    -0.000021400868
      10        0.001181528311     0.000881623769    -0.004960144135
      11        0.000015898373    -0.000022566608     0.000002146311
      12       -0.000010721612     0.000005510480    -0.000001535961
      13        0.000004702861     0.000012450527    -0.000011712103
      14       -0.000535682455    -0.000380995743     0.002709902741

  **** Optimization is complete! (in 7 steps) ****
    Final optimized geometry and variables:
    Molecular point group: c1

    Geometry (in Angstrom), charge = 0, multiplicity = 1:

    H            0.934481778035     1.621455509241    -0.163199476354
    H           -0.463867485545     2.498639108562     0.434472042276
    H            0.306330615213     1.287286580895     1.443840543674
    C            0.023503801155     1.526206926731     0.420962778307
    H           -1.830870572435     0.459600724979     0.414610383826
    H           -1.196795695206     0.818310457774    -1.163092096916
    C           -0.910889708198     0.481194279684    -0.166878110482
    H           -0.861146720953    -1.586595148499     0.442589356567
    H           -0.568791448207    -1.355486376765    -1.254750236044
    C           -0.340620542037    -0.948421936149    -0.271287807797
    H            1.448169176672    -2.131169945324    -0.089864591794
    H            1.415346431068    -0.744200455005     0.985896396553
    H            1.741930158868    -0.522597289072    -0.726731762066
    C            1.150337889124    -1.087974662404    -0.009988866256

*** Psi4 exiting successfully. Buy a developer a beer!
