                              Psi4 1.0.0 Driver

  ==> Input File <==

--------------------------------------------------------------------------

memory 1000 mb

molecule butane {
  symmetry C1
  0 1
  H      1.604   0.760   -8.260
  H      1.745   2.388   -8.880
  H      2.043   1.024   -9.930
  C      2.142   1.395   -8.932
  H      4.169   2.051   -9.210
  H      3.731   1.788   -7.539
  C      3.631   1.416   -8.537
  H      3.401   -0.719   -8.574
  H      4.742   -0.133   -9.528
  C      4.203   -0.012   -8.612
  H      5.550   -1.240   -7.476
  H      4.615   -0.128   -6.507
  H      5.955   0.459   -7.461
  C      5.153   -0.248   -7.424
  units Angstrom
}

dih_string = "4 7 10 14 220"
set optking fixed_dihedral = $dih_string

optimize('B3LYP/cc-PVDZ')
--------------------------------------------------------------------------

    Molecular point group: c1
  Charge       = 0
  Multiplicity = 1
  Basis Set: CC-PVDZ
   => B3LYP Composite Functional <=
  Basis Set:
  @DF-RKS Final Energy:  -158.44498710815213
    Total Energy =                       -158.4449871081521337
    Molecular point group: c1
  Basis Set: CC-PVDZ
  Basis Set:
   => B3LYP Composite Functional <=
  Basis Set: CC-PVDZ
   => B3LYP Composite Functional <=
  Basis Set:
  @DF-RKS Final Energy:  -158.45091842941358
    Total Energy =                       -158.4509184294135764
  Basis Set: CC-PVDZ
  Basis Set:
   => B3LYP Composite Functional <=
  Basis Set: CC-PVDZ
   => B3LYP Composite Functional <=
  Basis Set:
  @DF-RKS Final Energy:  -158.45370336908928
    Total Energy =                       -158.4537033690892827
  Basis Set: CC-PVDZ
  Basis Set:
  @DF-RKS Final Energy:  -158.45459315930944
    Total Energy =                       -158.4545931593094394
   => B3LYP Composite Functional <=
  Basis Set:
  @DF-RKS Final Energy:  -158.45486827439655
    Total Energy =                       -158.4548682743965458
  Basis Set: CC-PVDZ
  Basis Set:
   => B3LYP Composite Functional <=
  Basis Set: CC-PVDZ
   => B3LYP Composite Functional <=
  Basis Set:
  @DF-RKS Final Energy:  -158.45491961158990
    Total Energy =                       -158.4549196115899008
  Basis Set: CC-PVDZ
  Basis Set:
   => B3LYP Composite Functional <=
  Charge       = 0
  Multiplicity = 1
  Basis Set: CC-PVDZ
   => B3LYP Composite Functional <=
  Basis Set:

    Orbital Energies (a.u.)
    -----------------------

    Doubly Occupied:

       1A    -10.180045     2A    -10.179892     3A    -10.176211
       4A    -10.176210     5A     -0.788933     6A     -0.720379
       7A     -0.627246     8A     -0.571927     9A     -0.460272
      10A     -0.424626    11A     -0.420674    12A     -0.400023
      13A     -0.363672    14A     -0.355622    15A     -0.326215
      16A     -0.320279    17A     -0.316959

  @DF-RKS Final Energy:  -158.45492322171054

   => Energetics <=

    Nuclear Repulsion Energy =            129.8982176214933304
    One-Electron Energy =                -468.2907164886513556
    Two-Electron Energy =                 200.5196536112717922
    DFT Exchange-Correlation Energy =     -20.5820779658243289
    Empirical Dispersion Energy =           0.0000000000000000
    PCM Polarization Energy =               0.0000000000000000
    EFP Energy =                            0.0000000000000000
    Total Energy =                       -158.4549232217105441
    Molecular point group: c1
  Basis Set: CC-PVDZ
  Basis Set:
   => B3LYP Composite Functional <=

  -Total Gradient:
     Atom            X                  Y                   Z
    ------   -----------------  -----------------  -----------------
       1       -0.000023689206     0.000002997732    -0.000015882406
       2       -0.000010225838    -0.000010975489     0.000002884030
       3        0.000013257885     0.000002823188     0.000013766674
       4       -0.000682146365    -0.000377284953     0.002706071862
       5        0.000006644562     0.000003804840     0.000002855073
       6        0.000023199191    -0.000004578284    -0.000038583419
       7        0.000122572844     0.000139782879    -0.003125167043
       8        0.000022601820     0.000026031821    -0.000029141007
       9       -0.000004292581    -0.000002359334    -0.000006343631
      10        0.002694728960     0.001206577532    -0.001037434841
      11       -0.000001462189     0.000005746194     0.000013536334
      12        0.000024158285    -0.000002723963     0.000013895382
      13       -0.000016790263    -0.000004421384    -0.000009295781
      14       -0.002166848150    -0.000984608496     0.001506315392

  **** Optimization is complete! (in 7 steps) ****
    Final optimized geometry and variables:
    Molecular point group: c1

    Geometry (in Angstrom), charge = 0, multiplicity = 1:

    H           -2.264449154770     0.146351624728     0.092740708549
    H           -2.088816140686     1.786268519089    -0.580243915169
    H           -1.806687167252     0.364332896770    -1.611777628080
    C           -1.665542074355     0.768418239291    -0.594133347521
    H            0.382552866198     1.454135830797    -0.835901302027
    H           -0.109025761317     1.182895654659     0.832013434787
    C           -0.189017362600     0.765537752364    -0.188890142241
    H           -0.344260022721    -1.399480309267    -0.162233239040
    H            0.973092109020    -0.806396115839    -1.167216446225
    C            0.456258770960    -0.637846622985    -0.205989477772
    H            1.867268936410    -1.892125323629     0.907608614041
    H            0.897620281858    -0.799454499193     1.926894560716
    H            2.245746676191    -0.154527716503     0.963006594613
    C            1.419041484868    -0.886199136354     0.958367411790

*** Psi4 exiting successfully. Buy a developer a beer!
