                               Psi4 1.1 release

  ==> Input File <==

--------------------------------------------------------------------------

memory 1000 mb

molecule butane {
  symmetry C1
  0 1
  H      4.518   1.841   -6.627
  H      3.143   2.850   -7.012
  H      2.900   1.189   -6.529
  C      3.541   1.857   -7.064
  H      2.654   1.432   -8.973
  H      4.271   2.085   -9.072
  C      3.631   1.416   -8.537
  H      3.665   -0.647   -7.940
  H      4.104   -0.384   -9.610
  C      4.203   -0.012   -8.612
  H      6.088   -0.983   -8.270
  H      5.791   0.381   -7.220
  H      6.230   0.644   -8.890
  C      5.691   0.009   -8.218
  units Angstrom
}

dih_string = "14 10 7 4 290"
set optking fixed_dihedral = $dih_string

optimize('MP2/aug-cc-pvtz')
--------------------------------------------------------------------------

    Molecular point group: c1
  Charge       = 0
  Multiplicity = 1
  Basis Set: AUG-CC-PVTZ
    Blend: AUG-CC-PVTZ
  Basis Set: (AUG-CC-PVTZ AUX)
    Blend: AUG-CC-PVTZ-JKFIT
  @DF-RHF Final Energy:  -157.34974300496282
    Total Energy =                       -157.3497430049628178
  Basis Set: (AUG-CC-PVTZ AUX)
    Blend: AUG-CC-PVTZ-RI
    Molecular point group: c1
  Basis Set: AUG-CC-PVTZ
    Blend: AUG-CC-PVTZ
  Basis Set: (AUG-CC-PVTZ AUX)
    Blend: AUG-CC-PVTZ-JKFIT
  Basis Set: (AUG-CC-PVTZ AUX)
    Blend: AUG-CC-PVTZ-JKFIT
	 Reference Energy          =    -157.3497430049628178 [Eh]
	 Singles Energy            =      -0.0000000000000001 [Eh]
	 Same-Spin Energy          =      -0.1661784479983323 [Eh]
	 Opposite-Spin Energy      =      -0.6395579396796506 [Eh]
	 Correlation Energy        =      -0.8057363876779829 [Eh]
	 Total Energy              =    -158.1554793926408138 [Eh]
	 SCS Total Energy          =    -158.1726053485778323 [Eh]
  @DF-RHF Final Energy:  -157.35310111951281
    Total Energy =                       -157.3531011195128144
  @DF-RHF Final Energy:  -157.35412218599868
    Total Energy =                       -157.3541221859986763
  @DF-RHF Final Energy:  -157.35456575519055
    Total Energy =                       -157.3545657551905492
  @DF-RHF Final Energy:  -157.35454882486357
    Total Energy =                       -157.3545488248635706
  Charge       = 0
  Multiplicity = 1
  Basis Set: AUG-CC-PVTZ
    Blend: AUG-CC-PVTZ
  Basis Set: (AUG-CC-PVTZ AUX)
    Blend: AUG-CC-PVTZ-JKFIT

    Orbital Energies (a.u.)
    -----------------------

    Doubly Occupied:

       1A    -11.211595     2A    -11.210966     3A    -11.205580
       4A    -11.205580     5A     -1.074372     6A     -0.977487
       7A     -0.872600     8A     -0.777402     9A     -0.624391
      10A     -0.623375    11A     -0.575284    12A     -0.533563
      13A     -0.531527    14A     -0.503595    15A     -0.464182
      16A     -0.457236    17A     -0.456873

  @DF-RHF Final Energy:  -157.35455319030746

   => Energetics <=

    Nuclear Repulsion Energy =            133.3550985356903027
    One-Electron Energy =                -474.8080898259586320
    Two-Electron Energy =                 184.0984380999608447
    DFT Exchange-Correlation Energy =       0.0000000000000000
    Empirical Dispersion Energy =           0.0000000000000000
    PCM Polarization Energy =               0.0000000000000000
    EFP Energy =                            0.0000000000000000
    Total Energy =                       -157.3545531903074561
  Basis Set: (AUG-CC-PVTZ AUX)
    Blend: AUG-CC-PVTZ-RI
    Molecular point group: c1
  Basis Set: AUG-CC-PVTZ
    Blend: AUG-CC-PVTZ
  Basis Set: (AUG-CC-PVTZ AUX)
    Blend: AUG-CC-PVTZ-JKFIT
  Basis Set: (AUG-CC-PVTZ AUX)
    Blend: AUG-CC-PVTZ-JKFIT
	 Reference Energy          =    -157.3545531903074561 [Eh]
	 Singles Energy            =      -0.0000000000000002 [Eh]
	 Same-Spin Energy          =      -0.1658133531596124 [Eh]
	 Opposite-Spin Energy      =      -0.6396089132558562 [Eh]
	 Correlation Energy        =      -0.8054222664154689 [Eh]
	 Total Energy              =    -158.1599754567229184 [Eh]

	 ================> DF-SCS-MP2 Energies <==================
	-----------------------------------------------------------
	 SCS Same-Spin Scale       =       0.3333333333333333 [-]
	 SCS Opposite-Spin Scale   =       1.2000000000000000 [-]
	 SCS Same-Spin Energy      =      -0.0552711177198708 [Eh]
	 SCS Opposite-Spin Energy  =      -0.7675306959070275 [Eh]
	 SCS Correlation Energy    =      -0.8228018136268985 [Eh]
	 SCS Total Energy          =    -158.1773550039343661 [Eh]
	-----------------------------------------------------------

  -Total Gradient:
     Atom            X                  Y                   Z
    ------   -----------------  -----------------  -----------------
       1       -0.000005150321    -0.000002751296    -0.000006905577
       2       -0.000000786119    -0.000001679763    -0.000003560743
       3        0.000006588309     0.000008794865    -0.000003095694
       4       -0.000696421901    -0.000310962643     0.000036634138
       5        0.000012965009    -0.000000433556    -0.000007811042
       6       -0.000004881521     0.000002231248     0.000013137024
       7        0.001034034634     0.000481388547    -0.000331475179
       8        0.000014070387     0.000000719556    -0.000000629768
       9       -0.000011101659     0.000001036893     0.000010332003
      10       -0.000513538644    -0.000309915311     0.001024590526
      11       -0.000003867067     0.000000727033    -0.000001912665
      12       -0.000005601720    -0.000000967849    -0.000007792171
      13       -0.000002657706    -0.000007329578     0.000007934975
      14        0.000176348323     0.000139141849    -0.000729445826

  **** Optimization is complete! (in 6 steps) ****
    Final optimized geometry and variables:
    Molecular point group: c1

    Geometry (in Angstrom), charge = 0, multiplicity = 1:

    H            0.198343246054     1.151334294276     1.501307058372
    H           -1.234200073298     2.060699006153     1.054242955899
    H           -1.386853346305     0.395415930724     1.602013134280
    C           -0.772031545866     1.076966001151     1.016413034700
    H           -1.632050732395     0.583386960334    -0.877530429672
    H           -0.030796101558     1.275624476241    -0.990852390494
    C           -0.645600422835     0.582696483554    -0.413831132298
    H           -0.613642512527    -1.488686177603     0.131206897795
    H           -0.174812410339    -1.180760084865    -1.532722676505
    C           -0.050198751815    -0.812738063795    -0.514326089155
    H            1.825044997461    -1.865356403613    -0.266083083991
    H            1.589059561522    -0.560392088524     0.882987241797
    H            1.996724275707    -0.193785228940    -0.788482094937
    C            1.422745927699    -0.861830210595    -0.148396647684

*** Psi4 exiting successfully. Buy a developer a beer!
