                               Psi4 1.1 release

  ==> Input File <==

--------------------------------------------------------------------------

memory 5 Gb

molecule phepyrOH_neutral {
  symmetry C1
  0 1
  C      1.885   -1.036   -0.112
  C      2.878   -1.652   2.002
  C      0.807   -0.463   0.561
  C      1.800   -1.079   2.676
  C      3.862   -2.773   -1.356
  C      5.298   -2.250   0.501
  C      4.965   -3.329   -1.983
  C      6.337   -2.829   -0.209
  C      2.921   -1.631   0.608
  C      4.040   -2.225   -0.090
  C      0.764   -0.484   1.955
  N      6.202   -3.372   -1.440
  O      -0.288   0.076   2.612
  H      1.904   -1.012   -1.199
  H      3.678   -2.112   2.578
  H      0.003   -0.001   -0.006
  H      1.772   -1.098   3.762
  H      2.895   -2.772   -1.850
  H      5.475   -1.833   1.487
  H      4.879   -3.768   -2.972
  H      7.337   -2.875   0.208
  H      -1.024   0.232   1.998
  units Angstrom
}

dih_string = "3 11 13 22 15"
set optking fixed_dihedral = $dih_string

optimize('MP2/aug-cc-PVTZ')
--------------------------------------------------------------------------

    Molecular point group: c1
  Charge       = 0
  Multiplicity = 1
  Basis Set: AUG-CC-PVTZ
    Blend: AUG-CC-PVTZ
  Basis Set: (AUG-CC-PVTZ AUX)
    Blend: AUG-CC-PVTZ-JKFIT
  @DF-RHF Final Energy:  -551.28514544380891
    Total Energy =                       -551.2851454438089149
  Basis Set: (AUG-CC-PVTZ AUX)
    Blend: AUG-CC-PVTZ-RI
    Molecular point group: c1
  Basis Set: AUG-CC-PVTZ
    Blend: AUG-CC-PVTZ
  Basis Set: (AUG-CC-PVTZ AUX)
    Blend: AUG-CC-PVTZ-JKFIT
  Basis Set: (AUG-CC-PVTZ AUX)
    Blend: AUG-CC-PVTZ-JKFIT
	 Reference Energy          =    -551.2851454438089149 [Eh]
	 Singles Energy            =      -0.0000000000000001 [Eh]
	 Same-Spin Energy          =      -0.6052328481623904 [Eh]
	 Opposite-Spin Energy      =      -1.8310423995566600 [Eh]
	 Correlation Energy        =      -2.4362752477190504 [Eh]
	 Total Energy              =    -553.7214206915280101 [Eh]
	 SCS Total Energy          =    -553.6841406059977544 [Eh]
  @DF-RHF Final Energy:  -551.29122226445941
    Total Energy =                       -551.2912222644594067
  @DF-RHF Final Energy:  -551.29269250394032
    Total Energy =                       -551.2926925039403159
  @DF-RHF Final Energy:  -551.29275753330069
    Total Energy =                       -551.2927575333006871
  @DF-RHF Final Energy:  -551.29288109633899
    Total Energy =                       -551.2928810963389878
  @DF-RHF Final Energy:  -551.29292465491051
    Total Energy =                       -551.2929246549105073
  Charge       = 0
  Multiplicity = 1
  Basis Set: AUG-CC-PVTZ
    Blend: AUG-CC-PVTZ
  Basis Set: (AUG-CC-PVTZ AUX)
    Blend: AUG-CC-PVTZ-JKFIT

    Orbital Energies (a.u.)
    -----------------------

    Doubly Occupied:

       1A    -20.601482     2A    -15.559646     3A    -11.313214
       4A    -11.271098     5A    -11.270988     6A    -11.264701
       7A    -11.253094     8A    -11.250976     9A    -11.246343
      10A    -11.243968    11A    -11.237719    12A    -11.235044
      13A    -11.234848    14A     -1.418508    15A     -1.257247
      16A     -1.175602    17A     -1.105430    18A     -1.039193
      19A     -1.030116    20A     -1.013107    21A     -0.882011
      22A     -0.872383    23A     -0.843844    24A     -0.812808
      25A     -0.749392    26A     -0.726085    27A     -0.685135
      28A     -0.661961    29A     -0.655461    30A     -0.635901
      31A     -0.618615    32A     -0.606596    33A     -0.602810
      34A     -0.593167    35A     -0.576254    36A     -0.545051
      37A     -0.533971    38A     -0.522646    39A     -0.504774
      40A     -0.493734    41A     -0.416601    42A     -0.396509
      43A     -0.356583    44A     -0.347569    45A     -0.310420

  @DF-RHF Final Energy:  -551.29292900138557

   => Energetics <=

    Nuclear Repulsion Energy =            697.8542474724926024
    One-Electron Energy =               -2132.3491414979262117
    Two-Electron Energy =                 883.2019650240479223
    DFT Exchange-Correlation Energy =       0.0000000000000000
    Empirical Dispersion Energy =           0.0000000000000000
    PCM Polarization Energy =               0.0000000000000000
    EFP Energy =                            0.0000000000000000
    Total Energy =                       -551.2929290013855734
  Basis Set: (AUG-CC-PVTZ AUX)
    Blend: AUG-CC-PVTZ-RI
    Molecular point group: c1
  Basis Set: AUG-CC-PVTZ
    Blend: AUG-CC-PVTZ
  Basis Set: (AUG-CC-PVTZ AUX)
    Blend: AUG-CC-PVTZ-JKFIT
  Basis Set: (AUG-CC-PVTZ AUX)
    Blend: AUG-CC-PVTZ-JKFIT
	 Reference Energy          =    -551.2929290013855734 [Eh]
	 Singles Energy            =      -0.0000000000000001 [Eh]
	 Same-Spin Energy          =      -0.6040981118176157 [Eh]
	 Opposite-Spin Energy      =      -1.8283846254237384 [Eh]
	 Correlation Energy        =      -2.4324827372413540 [Eh]
	 Total Energy              =    -553.7254117386269172 [Eh]

	 ================> DF-SCS-MP2 Energies <==================
	-----------------------------------------------------------
	 SCS Same-Spin Scale       =       0.3333333333333333 [-]
	 SCS Opposite-Spin Scale   =       1.2000000000000000 [-]
	 SCS Same-Spin Energy      =      -0.2013660372725386 [Eh]
	 SCS Opposite-Spin Energy  =      -2.1940615505084859 [Eh]
	 SCS Correlation Energy    =      -2.3954275877810245 [Eh]
	 SCS Total Energy          =    -553.6883565891665739 [Eh]
	-----------------------------------------------------------

  -Total Gradient:
     Atom            X                  Y                   Z
    ------   -----------------  -----------------  -----------------
       1       -0.000018086608    -0.000013652862    -0.000001639124
       2       -0.000015155386     0.000004236733     0.000029712999
       3        0.000659523374     0.001078724679     0.000111403613
       4        0.000016193850    -0.000025225205    -0.000012893887
       5        0.000015415202     0.000017008144    -0.000018259224
       6        0.000011899224    -0.000024520197     0.000006660736
       7       -0.000020172943     0.000004278342    -0.000006544984
       8       -0.000000570950     0.000007461327     0.000020915111
       9        0.000044828090    -0.000011375950    -0.000036507641
      10       -0.000053345813     0.000020274806     0.000024684758
      11       -0.001181963387    -0.001951340806    -0.000078901324
      12        0.000012002468    -0.000006980084    -0.000007796267
      13        0.001183260911     0.002386362696    -0.000255930434
      14        0.000002565812     0.000000643674    -0.000001694900
      15       -0.000000652397    -0.000002960279    -0.000000785398
      16       -0.000000228472    -0.000000168982    -0.000008748244
      17       -0.000003257723     0.000000589344     0.000004943554
      18        0.000000413001    -0.000013061337    -0.000002642565
      19        0.000012027317     0.000006587933    -0.000005273750
      20       -0.000008305604    -0.000005374988    -0.000003696511
      21        0.000005236003     0.000007110973     0.000006041338
      22       -0.000661625971    -0.001478617958     0.000236952142

  **** Optimization is complete! (in 7 steps) ****
    Final optimized geometry and variables:
    Molecular point group: c1

    Geometry (in Angstrom), charge = 0, multiplicity = 1:

    C           -1.245469436850     0.759005882449    -0.564238440537
    C           -0.320294501274     0.063981936107     1.528543725738
    C           -2.317926710497     1.333418638359     0.098619353046
    C           -1.393541872146     0.624233687515     2.197798266173
    C            0.759240184064    -1.091086020603    -1.805694047383
    C            2.190205786034    -0.465687623295    -0.024437707409
    C            1.863626591214    -1.642713440403    -2.434690229613
    C            3.235360392056    -1.045264981794    -0.725447024699
    C           -0.227100696096     0.117884165108     0.137692369919
    C            0.906879833765    -0.479429572754    -0.563883153114
    C           -2.399990246327     1.257997598359     1.482579580355
    N            3.094262121339    -1.630596821562    -1.917115426491
    O           -3.416933275153     1.818939816333     2.195671339952
    H           -1.182410397883     0.844236862084    -1.638870598039
    H            0.442371906150    -0.450545227862     2.093958267744
    H           -3.087384483500     1.847117619589    -0.460733648739
    H           -1.471917374638     0.569019891689     3.272374906220
    H           -0.213101838803    -1.161199157813    -2.269555568264
    H            2.380931018170     0.015032598296     0.923174394652
    H            1.754312660002    -2.124247258809    -3.396507430423
    H            4.235300660448    -1.032708169023    -0.314510612409
    H           -4.135603030395     2.040508536864     1.596014743138

*** Psi4 exiting successfully. Buy a developer a beer!
