                               Psi4 1.1 release

  ==> Input File <==

--------------------------------------------------------------------------

memory 5 Gb

molecule phepyrOH_zwitterion {
  symmetry C1
  0 1
  C      1.885   -1.036   -0.112
  C      2.878   -1.652   2.002
  C      0.807   -0.463   0.561
  C      1.800   -1.079   2.676
  C      5.207   -2.536   0.601
  C      3.951   -2.489   -1.454
  C      6.264   -3.105   -0.094
  C      5.040   -3.059   -2.097
  C      2.921   -1.631   0.608
  C      4.040   -2.226   -0.090
  C      0.764   -0.484   1.955
  N      6.152   -3.348   -1.407
  O      -0.227   0.042   2.574
  H      1.904   -1.011   -1.199
  H      3.678   -2.112   2.577
  H      0.011   -0.006   -0.025
  H      1.791   -1.108   3.764
  H      5.304   -2.342   1.665
  H      3.052   -2.257   -2.018
  H      7.207   -3.379   0.360
  H      5.060   -3.298   -3.151
  H      6.941   -3.766   -1.899
  units Angstrom
}

dih_string = "1 9 10 5 165"
set optking fixed_dihedral = $dih_string

optimize('MP2/aug-cc-PVTZ')
--------------------------------------------------------------------------

    Molecular point group: c1
  Charge       = 0
  Multiplicity = 1
  Basis Set: AUG-CC-PVTZ
    Blend: AUG-CC-PVTZ
  Basis Set: (AUG-CC-PVTZ AUX)
    Blend: AUG-CC-PVTZ-JKFIT
  @DF-RHF Final Energy:  -551.21637369285747
    Total Energy =                       -551.2163736928574735
  Basis Set: (AUG-CC-PVTZ AUX)
    Blend: AUG-CC-PVTZ-RI
    Molecular point group: c1
  Basis Set: AUG-CC-PVTZ
    Blend: AUG-CC-PVTZ
  Basis Set: (AUG-CC-PVTZ AUX)
    Blend: AUG-CC-PVTZ-JKFIT
  Basis Set: (AUG-CC-PVTZ AUX)
    Blend: AUG-CC-PVTZ-JKFIT
	 Reference Energy          =    -551.2163736928574735 [Eh]
	 Singles Energy            =      -0.0000000000000004 [Eh]
	 Same-Spin Energy          =      -0.6064976378137733 [Eh]
	 Opposite-Spin Energy      =      -1.8410670857954465 [Eh]
	 Correlation Energy        =      -2.4475647236092204 [Eh]
	 Total Energy              =    -553.6639384164667490 [Eh]
	 SCS Total Energy          =    -553.6278200750832639 [Eh]
  @DF-RHF Final Energy:  -551.22882582710110
    Total Energy =                       -551.2288258271011046
  @DF-RHF Final Energy:  -551.23852671972645
    Total Energy =                       -551.2385267197264511
  @DF-RHF Final Energy:  -551.24504902802289
    Total Energy =                       -551.2450490280228905
  @DF-RHF Final Energy:  -551.24794582752656
    Total Energy =                       -551.2479458275265642
  @DF-RHF Final Energy:  -551.24841689968775
    Total Energy =                       -551.2484168996877543
  @DF-RHF Final Energy:  -551.24848854268157
    Total Energy =                       -551.2484885426815708
  Charge       = 0
  Multiplicity = 1
  Basis Set: AUG-CC-PVTZ
    Blend: AUG-CC-PVTZ
  Basis Set: (AUG-CC-PVTZ AUX)
    Blend: AUG-CC-PVTZ-JKFIT

    Orbital Energies (a.u.)
    -----------------------

    Doubly Occupied:

       1A    -20.480518     2A    -15.660321     3A    -11.329371
       4A    -11.329342     5A    -11.294595     6A    -11.281231
       7A    -11.262088     8A    -11.261993     9A    -11.237672
      10A    -11.237420    11A    -11.224781    12A    -11.203837
      13A    -11.203720    14A     -1.344093    15A     -1.314672
      16A     -1.166438    17A     -1.107012    18A     -1.088798
      19A     -1.013304    20A     -0.996725    21A     -0.906149
      22A     -0.895132    23A     -0.814376    24A     -0.812258
      25A     -0.796627    26A     -0.718406    27A     -0.708636
      28A     -0.682447    29A     -0.655634    30A     -0.625168
      31A     -0.623815    32A     -0.618767    33A     -0.612227
      34A     -0.584943    35A     -0.557136    36A     -0.548393
      37A     -0.527121    38A     -0.522756    39A     -0.485443
      40A     -0.477875    41A     -0.408709    42A     -0.396441
      43A     -0.373309    44A     -0.346162    45A     -0.249296

  @DF-RHF Final Energy:  -551.24847375449315

   => Energetics <=

    Nuclear Repulsion Energy =            698.0751837940998712
    One-Electron Energy =               -2132.6770034238452354
    Two-Electron Energy =                 883.3533458752523302
    DFT Exchange-Correlation Energy =       0.0000000000000000
    Empirical Dispersion Energy =           0.0000000000000000
    PCM Polarization Energy =               0.0000000000000000
    EFP Energy =                            0.0000000000000000
    Total Energy =                       -551.2484737544931477
  Basis Set: (AUG-CC-PVTZ AUX)
    Blend: AUG-CC-PVTZ-RI
    Molecular point group: c1
  Basis Set: AUG-CC-PVTZ
    Blend: AUG-CC-PVTZ
  Basis Set: (AUG-CC-PVTZ AUX)
    Blend: AUG-CC-PVTZ-JKFIT
  Basis Set: (AUG-CC-PVTZ AUX)
    Blend: AUG-CC-PVTZ-JKFIT
	 Reference Energy          =    -551.2484737544931477 [Eh]
	 Singles Energy            =      -0.0000000000000003 [Eh]
	 Same-Spin Energy          =      -0.5989103602587349 [Eh]
	 Opposite-Spin Energy      =      -1.8350159722818478 [Eh]
	 Correlation Energy        =      -2.4339263325405831 [Eh]
	 Total Energy              =    -553.6824000870337841 [Eh]

	 ================> DF-SCS-MP2 Energies <==================
	-----------------------------------------------------------
	 SCS Same-Spin Scale       =       0.3333333333333333 [-]
	 SCS Opposite-Spin Scale   =       1.2000000000000000 [-]
	 SCS Same-Spin Energy      =      -0.1996367867529116 [Eh]
	 SCS Opposite-Spin Energy  =      -2.2020191667382174 [Eh]
	 SCS Correlation Energy    =      -2.4016559534911295 [Eh]
	 SCS Total Energy          =    -553.6501297079843198 [Eh]
	-----------------------------------------------------------

  -Total Gradient:
     Atom            X                  Y                   Z
    ------   -----------------  -----------------  -----------------
       1        0.001557183586     0.002877913482     0.000136034749
       2        0.000022133671     0.000023000576    -0.000003244045
       3        0.000001739320    -0.000022182426    -0.000039296897
       4        0.000026376747    -0.000013968648     0.000006005720
       5        0.001183952135     0.003003517817    -0.000627678144
       6        0.000000825085    -0.000000043106    -0.000019198942
       7       -0.000016856738    -0.000026779217     0.000018555744
       8       -0.000002144340    -0.000019070382     0.000008211424
       9       -0.001711819766    -0.002721460463    -0.000545578554
      10       -0.001016222337    -0.003152401725     0.001051051350
      11       -0.000030061111     0.000027140868     0.000029217680
      12        0.000005771790     0.000033027859    -0.000014268739
      13        0.000007323318    -0.000024679402    -0.000011819110
      14        0.000007294796     0.000003299253    -0.000012103590
      15       -0.000015974052    -0.000003724032     0.000001935958
      16        0.000001604398     0.000000257095     0.000009197659
      17       -0.000003461679     0.000008853518    -0.000005838986
      18       -0.000001552314    -0.000004221599    -0.000005763797
      19       -0.000013112621    -0.000003370961     0.000017187166
      20        0.000000872281     0.000007093717    -0.000003508048
      21        0.000002379020     0.000007275655     0.000005704964
      22       -0.000006251189     0.000000522115     0.000005196450

  **** Optimization is complete! (in 8 steps) ****
    Final optimized geometry and variables:
    Molecular point group: c1

    Geometry (in Angstrom), charge = 0, multiplicity = 1:

    C           -1.353459342519     0.688793539887    -0.546268737411
    C           -0.325755648005     0.132026593408     1.580119722463
    C           -2.385354840113     1.288789779339     0.099387859996
    C           -1.360717026612     0.708443659295     2.242171061526
    C            2.037318303189    -0.828296847248     0.136859674948
    C            0.818763243801    -0.717116308570    -1.925413924694
    C            3.092927710332    -1.346784763410    -0.538896461661
    C            1.892834331944    -1.243864237961    -2.564620646177
    C           -0.274393521825     0.078280287186     0.156733464406
    C            0.812241255085    -0.484036347064    -0.514781485529
    C           -2.469343598306     1.332850588440     1.546416477412
    N            3.025413828369    -1.560785678282    -1.880746560362
    O           -3.415436568057     1.866715524704     2.143410456845
    H           -1.345412133512     0.707241022939    -1.625812362062
    H            0.459309700026    -0.329379752127     2.160491457954
    H           -3.181679981163     1.767352915493    -0.451447858198
    H           -1.393936027539     0.716288224833     3.321691363239
    H            2.164778422227    -0.662900991793     1.192718498631
    H           -0.050422287718    -0.502781419914    -2.523048123021
    H            4.024610246205    -1.597458021419    -0.058936766374
    H            1.901451140961    -1.438833034614    -3.624401462882
    H            3.815061694624    -1.945009351532    -2.368054210233

*** Psi4 exiting successfully. Buy a developer a beer!
