                               Psi4 1.1 release

  ==> Input File <==

--------------------------------------------------------------------------

memory 1000 mb

molecule butane {
  symmetry C1
  0 1
  H      2.529   1.050   -6.729
  H      1.929   2.398   -7.666
  H      1.615   0.761   -8.189
  C      2.326   1.405   -7.718
  H      3.427   1.771   -9.526
  H      4.343   2.061   -8.067
  C      3.631   1.416   -8.537
  H      3.665   -0.647   -7.940
  H      4.104   -0.384   -9.610
  C      4.203   -0.012   -8.612
  H      6.088   -0.983   -8.270
  H      5.791   0.381   -7.220
  H      6.230   0.644   -8.890
  C      5.691   0.009   -8.218
  units Angstrom
}

dih_string = "14 10 7 4 230"
set optking fixed_dihedral = $dih_string

optimize('MP2/aug-cc-pvtz')
--------------------------------------------------------------------------

    Molecular point group: c1
  Charge       = 0
  Multiplicity = 1
  Basis Set: AUG-CC-PVTZ
    Blend: AUG-CC-PVTZ
  Basis Set: (AUG-CC-PVTZ AUX)
    Blend: AUG-CC-PVTZ-JKFIT
  @DF-RHF Final Energy:  -157.34712549047558
    Total Energy =                       -157.3471254904755767
  Basis Set: (AUG-CC-PVTZ AUX)
    Blend: AUG-CC-PVTZ-RI
    Molecular point group: c1
  Basis Set: AUG-CC-PVTZ
    Blend: AUG-CC-PVTZ
  Basis Set: (AUG-CC-PVTZ AUX)
    Blend: AUG-CC-PVTZ-JKFIT
  Basis Set: (AUG-CC-PVTZ AUX)
    Blend: AUG-CC-PVTZ-JKFIT
	 Reference Energy          =    -157.3471254904755767 [Eh]
	 Singles Energy            =      -0.0000000000000001 [Eh]
	 Same-Spin Energy          =      -0.1655267122842836 [Eh]
	 Opposite-Spin Energy      =      -0.6396305699602690 [Eh]
	 Correlation Energy        =      -0.8051572822445527 [Eh]
	 Total Energy              =    -158.1522827727201275 [Eh]
	 SCS Total Energy          =    -158.1698577451893186 [Eh]
  @DF-RHF Final Energy:  -157.34987618362717
    Total Energy =                       -157.3498761836271740
  @DF-RHF Final Energy:  -157.35074904517685
    Total Energy =                       -157.3507490451768547
  @DF-RHF Final Energy:  -157.35104693658042
    Total Energy =                       -157.3510469365804170
  @DF-RHF Final Energy:  -157.35104979837055
    Total Energy =                       -157.3510497983705534
  @DF-RHF Final Energy:  -157.35105472733230
    Total Energy =                       -157.3510547273322970
  Charge       = 0
  Multiplicity = 1
  Basis Set: AUG-CC-PVTZ
    Blend: AUG-CC-PVTZ
  Basis Set: (AUG-CC-PVTZ AUX)
    Blend: AUG-CC-PVTZ-JKFIT

    Orbital Energies (a.u.)
    -----------------------

    Doubly Occupied:

       1A    -11.211230     2A    -11.210638     3A    -11.206651
       4A    -11.206644     5A     -1.071664     6A     -0.981962
       7A     -0.861318     8A     -0.787925     9A     -0.634564
      10A     -0.594934    11A     -0.582604    12A     -0.556214
      13A     -0.510743    14A     -0.506222    15A     -0.465269
      16A     -0.456356    17A     -0.455181

  @DF-RHF Final Energy:  -157.35105467611004

   => Energetics <=

    Nuclear Repulsion Energy =            131.6247881648345697
    One-Electron Energy =                -471.3514459765922879
    Two-Electron Energy =                 182.3756031356476797
    DFT Exchange-Correlation Energy =       0.0000000000000000
    Empirical Dispersion Energy =           0.0000000000000000
    PCM Polarization Energy =               0.0000000000000000
    EFP Energy =                            0.0000000000000000
    Total Energy =                       -157.3510546761100386
  Basis Set: (AUG-CC-PVTZ AUX)
    Blend: AUG-CC-PVTZ-RI
    Molecular point group: c1
  Basis Set: AUG-CC-PVTZ
    Blend: AUG-CC-PVTZ
  Basis Set: (AUG-CC-PVTZ AUX)
    Blend: AUG-CC-PVTZ-JKFIT
  Basis Set: (AUG-CC-PVTZ AUX)
    Blend: AUG-CC-PVTZ-JKFIT
	 Reference Energy          =    -157.3510546761100386 [Eh]
	 Singles Energy            =      -0.0000000000000000 [Eh]
	 Same-Spin Energy          =      -0.1654083783393456 [Eh]
	 Opposite-Spin Energy      =      -0.6400168207404615 [Eh]
	 Correlation Energy        =      -0.8054251990798071 [Eh]
	 Total Energy              =    -158.1564798751898593 [Eh]

	 ================> DF-SCS-MP2 Energies <==================
	-----------------------------------------------------------
	 SCS Same-Spin Scale       =       0.3333333333333333 [-]
	 SCS Opposite-Spin Scale   =       1.2000000000000000 [-]
	 SCS Same-Spin Energy      =      -0.0551361261131152 [Eh]
	 SCS Opposite-Spin Energy  =      -0.7680201848885538 [Eh]
	 SCS Correlation Energy    =      -0.8231563110016691 [Eh]
	 SCS Total Energy          =    -158.1742109871117066 [Eh]
	-----------------------------------------------------------

  -Total Gradient:
     Atom            X                  Y                   Z
    ------   -----------------  -----------------  -----------------
       1       -0.000010599281    -0.000000610952     0.000020288277
       2       -0.000010492102     0.000010130202     0.000001857760
       3       -0.000012678196    -0.000011167646    -0.000002989974
       4        0.000919981929     0.000305499711     0.001410539012
       5       -0.000022137099    -0.000019735971    -0.000018446134
       6        0.000004019681     0.000000801618    -0.000024650179
       7       -0.001346368395    -0.000499568680    -0.001311735485
       8       -0.000011042476    -0.000001131891    -0.000022518501
       9        0.000015557446     0.000018975155    -0.000024950817
      10        0.000893069123     0.000474601034    -0.001661168834
      11        0.000010620349    -0.000010853990    -0.000001052713
      12        0.000015966732     0.000000945068     0.000016543675
      13        0.000010006808     0.000010056003    -0.000006064620
      14       -0.000455904521    -0.000277939658     0.001624348535

  **** Optimization is complete! (in 7 steps) ****
    Final optimized geometry and variables:
    Molecular point group: c1

    Geometry (in Angstrom), charge = 0, multiplicity = 1:

    H           -1.480783486220     0.360862223909     1.550119720610
    H           -2.092493121719     1.699434482515     0.581924011767
    H           -2.392131907630     0.037970121930     0.081805663300
    C           -1.657708380048     0.703547972004     0.532214251534
    H           -0.536876077582     1.089131174324    -1.259635032597
    H            0.343433135531     1.375222265397     0.216691280749
    C           -0.362898496614     0.693846532887    -0.259767437424
    H           -0.260042955616    -1.370571881627     0.331737410267
    H            0.140980893256    -1.111214974391    -1.344044692856
    C            0.271040600669    -0.698970372680    -0.344347753531
    H            2.175163534687    -1.694827317883    -0.038177557215
    H            1.875486353740    -0.338830574106     1.045721953513
    H            2.308437542887    -0.042652289638    -0.632252100909
    C            1.742748851010    -0.698804017616     0.027061908743

*** Psi4 exiting successfully. Buy a developer a beer!
