                               Psi4 1.1 release

  ==> Input File <==

--------------------------------------------------------------------------

memory 5000 mb

molecule butane {
  symmetry C1
  0 1
  H      1.541   1.589   -8.068
  H      1.958   2.148   -9.671
  H      1.893   0.435   -9.332
  C      2.142   1.395   -8.932
  H      4.169   2.051   -9.210
  H      3.731   1.788   -7.539
  C      3.631   1.416   -8.537
  H      3.665   -0.647   -7.940
  H      4.104   -0.384   -9.610
  C      4.203   -0.012   -8.612
  H      6.088   -0.983   -8.270
  H      5.791   0.381   -7.220
  H      6.230   0.644   -8.890
  C      5.691   0.009   -8.218
  units Angstrom
}

dih_string = "10 7 4 3 350"
set optking fixed_dihedral = $dih_string

optimize('MP2/aug-cc-pvtz')
--------------------------------------------------------------------------

    Molecular point group: c1
  Charge       = 0
  Multiplicity = 1
  Basis Set: AUG-CC-PVTZ
    Blend: AUG-CC-PVTZ
  Basis Set: (AUG-CC-PVTZ AUX)
    Blend: AUG-CC-PVTZ-JKFIT
  @DF-RHF Final Energy:  -157.34758822010360
    Total Energy =                       -157.3475882201036029
  Basis Set: (AUG-CC-PVTZ AUX)
    Blend: AUG-CC-PVTZ-RI
    Molecular point group: c1
  Basis Set: AUG-CC-PVTZ
    Blend: AUG-CC-PVTZ
  Basis Set: (AUG-CC-PVTZ AUX)
    Blend: AUG-CC-PVTZ-JKFIT
  Basis Set: (AUG-CC-PVTZ AUX)
    Blend: AUG-CC-PVTZ-JKFIT
	 Reference Energy          =    -157.3475882201036029 [Eh]
	 Singles Energy            =      -0.0000000000000000 [Eh]
	 Same-Spin Energy          =      -0.1654780683710888 [Eh]
	 Opposite-Spin Energy      =      -0.6394511572700565 [Eh]
	 Correlation Energy        =      -0.8049292256411453 [Eh]
	 Total Energy              =    -158.1525174457447349 [Eh]
	 SCS Total Energy          =    -158.1700889649513613 [Eh]
  @DF-RHF Final Energy:  -157.35048061829781
    Total Energy =                       -157.3504806182978086
  @DF-RHF Final Energy:  -157.35137810014226
    Total Energy =                       -157.3513781001422558
  @DF-RHF Final Energy:  -157.35167523704752
    Total Energy =                       -157.3516752370475160
  @DF-RHF Final Energy:  -157.35166459253176
    Total Energy =                       -157.3516645925317619
  Charge       = 0
  Multiplicity = 1
  Basis Set: AUG-CC-PVTZ
    Blend: AUG-CC-PVTZ
  Basis Set: (AUG-CC-PVTZ AUX)
    Blend: AUG-CC-PVTZ-JKFIT

    Orbital Energies (a.u.)
    -----------------------

    Doubly Occupied:

       1A    -11.211678     2A    -11.210867     3A    -11.205877
       4A    -11.205520     5A     -1.072769     6A     -0.980351
       7A     -0.861983     8A     -0.788942     9A     -0.638797
      10A     -0.583905    11A     -0.577857    12A     -0.569236
      13A     -0.511660    14A     -0.496594    15A     -0.470457
      16A     -0.457065    17A     -0.455987

  @DF-RHF Final Energy:  -157.35167211066647

   => Energetics <=

    Nuclear Repulsion Energy =            131.2977495530677743
    One-Electron Energy =                -470.6997512240849915
    Two-Electron Energy =                 182.0503295603507468
    DFT Exchange-Correlation Energy =       0.0000000000000000
    Empirical Dispersion Energy =           0.0000000000000000
    PCM Polarization Energy =               0.0000000000000000
    EFP Energy =                            0.0000000000000000
    Total Energy =                       -157.3516721106664704
  Basis Set: (AUG-CC-PVTZ AUX)
    Blend: AUG-CC-PVTZ-RI
    Molecular point group: c1
  Basis Set: AUG-CC-PVTZ
    Blend: AUG-CC-PVTZ
  Basis Set: (AUG-CC-PVTZ AUX)
    Blend: AUG-CC-PVTZ-JKFIT
  Basis Set: (AUG-CC-PVTZ AUX)
    Blend: AUG-CC-PVTZ-JKFIT
	 Reference Energy          =    -157.3516721106664704 [Eh]
	 Singles Energy            =      -0.0000000000000001 [Eh]
	 Same-Spin Energy          =      -0.1654503042768445 [Eh]
	 Opposite-Spin Energy      =      -0.6398491986850041 [Eh]
	 Correlation Energy        =      -0.8052995029618487 [Eh]
	 Total Energy              =    -158.1569716136283148 [Eh]

	 ================> DF-SCS-MP2 Energies <==================
	-----------------------------------------------------------
	 SCS Same-Spin Scale       =       0.3333333333333333 [-]
	 SCS Opposite-Spin Scale   =       1.2000000000000000 [-]
	 SCS Same-Spin Energy      =      -0.0551501014256148 [Eh]
	 SCS Opposite-Spin Energy  =      -0.7678190384220049 [Eh]
	 SCS Correlation Energy    =      -0.8229691398476199 [Eh]
	 SCS Total Energy          =    -158.1746412505140995 [Eh]
	-----------------------------------------------------------

  -Total Gradient:
     Atom            X                  Y                   Z
    ------   -----------------  -----------------  -----------------
       1        0.000025494458     0.000009860672    -0.000027416004
       2       -0.000000350738    -0.000017118418    -0.000016576053
       3       -0.000459595235    -0.000611673984     0.001803044971
       4        0.000709727532     0.000855585416    -0.002743333888
       5       -0.000013036368     0.000007252639     0.000029774697
       6        0.000014057949    -0.000011596625    -0.000003854112
       7       -0.000627628079    -0.000448691251     0.002335164405
       8       -0.000004969179     0.000010106258    -0.000017638985
       9       -0.000005435407    -0.000011837421     0.000016486106
      10        0.000372163569     0.000215650874    -0.001361029994
      11       -0.000001318826     0.000016388314     0.000000057703
      12       -0.000000882979    -0.000003792090    -0.000013348673
      13       -0.000002298550    -0.000008718714     0.000015462690
      14       -0.000005928146    -0.000001415670    -0.000016792864

  **** Optimization is complete! (in 6 steps) ****
    Final optimized geometry and variables:
    Molecular point group: c1

    Geometry (in Angstrom), charge = 0, multiplicity = 1:

    H           -2.417573229412     0.873590623024     0.510573804015
    H           -2.018489548013     1.467272071168    -1.089969640093
    H           -2.081335313029    -0.262405475800    -0.770449121969
    C           -1.785773669521     0.700072251225    -0.357039586965
    H            0.258801083508     1.341271630388    -0.648716043909
    H           -0.166027779590     1.102931604029     1.023969407009
    C           -0.302967740439     0.692367044755     0.023738189285
    H           -0.249922642986    -1.360969133816     0.623247646015
    H            0.201143235449    -1.086322208796    -1.043055397616
    C            0.313056563533    -0.693569207972    -0.031535607802
    H            2.204354086341    -1.696843328254     0.310020645518
    H            1.901410666160    -0.334433043532     1.382582701139
    H            2.354233983492    -0.049525487937    -0.291929332841
    C            1.776810709445    -0.698413816261     0.364310024921

*** Psi4 exiting successfully. Buy a developer a beer!
