                               Psi4 1.1 release

  ==> Input File <==

--------------------------------------------------------------------------

memory 5 Gb

molecule phepyrOH_cation {
  symmetry C1
  1 1
  C      1.885   -1.036   -0.112
  C      2.878   -1.652   2.002
  C      0.807   -0.463   0.561
  C      1.800   -1.079   2.676
  C      3.950   -2.488   -1.454
  C      5.207   -2.536   0.601
  C      5.038   -3.059   -2.097
  C      6.264   -3.106   -0.095
  C      2.921   -1.631   0.608
  C      4.040   -2.225   -0.090
  C      0.764   -0.484   1.955
  N      6.150   -3.348   -1.408
  O      -0.288   0.076   2.612
  H      1.904   -1.012   -1.199
  H      3.678   -2.112   2.578
  H      0.003   -0.001   -0.006
  H      1.772   -1.098   3.762
  H      3.051   -2.256   -2.018
  H      5.305   -2.343   1.665
  H      5.058   -3.297   -3.152
  H      7.207   -3.379   0.358
  H      6.938   -3.768   -1.900
  H      -0.175   -0.018   3.571
  units Angstrom
}

dih_string = "1 9 10 5 345"
set optking fixed_dihedral = $dih_string

optimize('MP2/aug-cc-PVTZ')
--------------------------------------------------------------------------

    Molecular point group: c1
  Charge       = 1
  Multiplicity = 1
  Basis Set: AUG-CC-PVTZ
    Blend: AUG-CC-PVTZ
  Basis Set: (AUG-CC-PVTZ AUX)
    Blend: AUG-CC-PVTZ-JKFIT
  @DF-RHF Final Energy:  -551.67358890887124
    Total Energy =                       -551.6735889088712383
  Basis Set: (AUG-CC-PVTZ AUX)
    Blend: AUG-CC-PVTZ-RI
    Molecular point group: c1
  Basis Set: AUG-CC-PVTZ
    Blend: AUG-CC-PVTZ
  Basis Set: (AUG-CC-PVTZ AUX)
    Blend: AUG-CC-PVTZ-JKFIT
  Basis Set: (AUG-CC-PVTZ AUX)
    Blend: AUG-CC-PVTZ-JKFIT
	 Reference Energy          =    -551.6735889088712383 [Eh]
	 Singles Energy            =      -0.0000000000000001 [Eh]
	 Same-Spin Energy          =      -0.5969431585635115 [Eh]
	 Opposite-Spin Energy      =      -1.8265073492803774 [Eh]
	 Correlation Energy        =      -2.4234505078438890 [Eh]
	 Total Energy              =    -554.0970394167151198 [Eh]
	 SCS Total Energy          =    -554.0643787808621710 [Eh]
  @DF-RHF Final Energy:  -551.68037127776950
    Total Energy =                       -551.6803712777694955
  @DF-RHF Final Energy:  -551.68258078707504
    Total Energy =                       -551.6825807870750396
  @DF-RHF Final Energy:  -551.68263578923904
    Total Energy =                       -551.6826357892390433
  @DF-RHF Final Energy:  -551.68264648931847
    Total Energy =                       -551.6826464893184720
  Charge       = 1
  Multiplicity = 1
  Basis Set: AUG-CC-PVTZ
    Blend: AUG-CC-PVTZ
  Basis Set: (AUG-CC-PVTZ AUX)
    Blend: AUG-CC-PVTZ-JKFIT

    Orbital Energies (a.u.)
    -----------------------

    Doubly Occupied:

       1A    -20.712167     2A    -15.823351     3A    -11.476543
       4A    -11.476467     5A    -11.449750     6A    -11.439106
       7A    -11.406874     8A    -11.406495     9A    -11.382672
      10A    -11.378867    11A    -11.374118    12A    -11.357121
      13A    -11.350342    14A     -1.535581    15A     -1.503306
      16A     -1.317932    17A     -1.267037    18A     -1.234751
      19A     -1.158726    20A     -1.157920    21A     -1.060261
      22A     -1.057855    23A     -0.981036    24A     -0.960204
      25A     -0.955636    26A     -0.875459    27A     -0.861747
      28A     -0.855171    29A     -0.820204    30A     -0.798743
      31A     -0.781052    32A     -0.769673    33A     -0.760400
      34A     -0.733722    35A     -0.722035    36A     -0.715606
      37A     -0.702017    38A     -0.687068    39A     -0.664821
      40A     -0.643831    41A     -0.619938    42A     -0.568620
      43A     -0.537309    44A     -0.476052    45A     -0.436767

  @DF-RHF Final Energy:  -551.68264839847393

   => Energetics <=

    Nuclear Repulsion Energy =            713.3261657618838854
    One-Electron Energy =               -2149.5089252000343549
    Two-Electron Energy =                 884.5001110396765398
    DFT Exchange-Correlation Energy =       0.0000000000000000
    Empirical Dispersion Energy =           0.0000000000000000
    PCM Polarization Energy =               0.0000000000000000
    EFP Energy =                            0.0000000000000000
    Total Energy =                       -551.6826483984739298
  Basis Set: (AUG-CC-PVTZ AUX)
    Blend: AUG-CC-PVTZ-RI
    Molecular point group: c1
  Basis Set: AUG-CC-PVTZ
    Blend: AUG-CC-PVTZ
  Basis Set: (AUG-CC-PVTZ AUX)
    Blend: AUG-CC-PVTZ-JKFIT
  Basis Set: (AUG-CC-PVTZ AUX)
    Blend: AUG-CC-PVTZ-JKFIT
	 Reference Energy          =    -551.6826483984739298 [Eh]
	 Singles Energy            =      -0.0000000000000002 [Eh]
	 Same-Spin Energy          =      -0.5956575993401809 [Eh]
	 Opposite-Spin Energy      =      -1.8237021111550944 [Eh]
	 Correlation Energy        =      -2.4193597104952751 [Eh]
	 Total Energy              =    -554.1020081089692439 [Eh]

	 ================> DF-SCS-MP2 Energies <==================
	-----------------------------------------------------------
	 SCS Same-Spin Scale       =       0.3333333333333333 [-]
	 SCS Opposite-Spin Scale   =       1.2000000000000000 [-]
	 SCS Same-Spin Energy      =      -0.1985525331133936 [Eh]
	 SCS Opposite-Spin Energy  =      -2.1884425333861133 [Eh]
	 SCS Correlation Energy    =      -2.3869950664995070 [Eh]
	 SCS Total Energy          =    -554.0696434649734101 [Eh]
	-----------------------------------------------------------

  -Total Gradient:
     Atom            X                  Y                   Z
    ------   -----------------  -----------------  -----------------
       1       -0.000457611100    -0.000925766191     0.000004435649
       2       -0.000003620672     0.000007004676     0.000014457105
       3       -0.000005964349     0.000017374123     0.000017400943
       4        0.000021450709    -0.000026728710    -0.000013380610
       5        0.000380594526     0.000932138982    -0.000192209685
       6        0.000020527265     0.000014134039    -0.000014760160
       7       -0.000025555486     0.000000622776    -0.000003903888
       8       -0.000003681053    -0.000006122917     0.000023151170
       9        0.000966272028     0.001829076468    -0.000119339112
      10       -0.000864223861    -0.001871079442     0.000339995196
      11       -0.000032523790     0.000020623076    -0.000001316451
      12        0.000005845701     0.000004363928     0.000001114345
      13        0.000021713111    -0.000012950319    -0.000003549804
      14       -0.000006417131     0.000001032743    -0.000020318768
      15       -0.000019266756     0.000002046838     0.000007368707
      16        0.000008121483    -0.000015359430    -0.000012815246
      17        0.000001082721     0.000005021895    -0.000002466059
      18       -0.000008049310     0.000015327346    -0.000010703544
      19        0.000010886460    -0.000006022724    -0.000015713626
      20       -0.000004104560     0.000007835328     0.000001885297
      21       -0.000005252915     0.000002191655     0.000004044522
      22       -0.000001525744     0.000004408279     0.000000596644
      23        0.000001302719     0.000000827583    -0.000003972627

  **** Optimization is complete! (in 6 steps) ****
    Final optimized geometry and variables:
    Molecular point group: c1

    Geometry (in Angstrom), charge = 1, multiplicity = 1:

    C           -1.285467187821     0.740547442446    -0.544849690850
    C           -0.299173299147     0.110470641689     1.552035636417
    C           -2.347950379773     1.309091697034     0.120321314310
    C           -1.366254002645     0.668698480935     2.223989158015
    C            0.816284929419    -0.759494950917    -1.918509301078
    C            2.080890647996    -0.783133212773     0.101368758663
    C            1.880586663237    -1.324118891498    -2.572317127887
    C            3.127849043620    -1.347978106370    -0.579571406221
    C           -0.233444065506     0.134371080640     0.154542201016
    C            0.875884915214    -0.469796241019    -0.546484530252
    C           -2.398118002117     1.276679347810     1.512383867586
    N            3.004724686648    -1.604528851655    -1.892492578320
    O           -3.465094671293     1.845449214869     2.093948271353
    H           -1.266859113398     0.809416523073    -1.620843801616
    H            0.465723920741    -0.379283127725     2.133530957165
    H           -3.149187792541     1.790579479256    -0.417732277595
    H           -1.404362222854     0.627268146879     3.302831024524
    H           -0.076614080998    -0.571009460572    -2.489462589186
    H            2.224934870438    -0.565650770710     1.145804377067
    H            1.870772195008    -1.568751505053    -3.621425555355
    H            4.069656051342    -1.597250970543    -0.119792065127
    H            3.783900282538    -2.020528176647    -2.385232476277
    H           -3.406868418657     1.775000227193     3.053577371967

*** Psi4 exiting successfully. Buy a developer a beer!
