                              Psi4 1.0.0 Driver

  ==> Input File <==

--------------------------------------------------------------------------

memory 1000 mb

molecule butane {
  symmetry C1
  0 1
  H      1.604   0.760   -8.260
  H      1.745   2.388   -8.880
  H      2.043   1.024   -9.930
  C      2.142   1.395   -8.932
  H      4.169   2.051   -9.210
  H      3.731   1.788   -7.539
  C      3.631   1.416   -8.537
  H      5.109   -0.003   -9.180
  H      4.406   -0.367   -7.624
  C      4.203   -0.012   -8.612
  H      3.578   -1.932   -9.343
  H      2.976   -0.586   -10.279
  H      2.273   -0.950   -8.723
  C      3.180   -0.941   -9.291
  units Angstrom
}

dih_string = "4 7 10 14 10"
set optking fixed_dihedral = $dih_string

optimize('MP2/6-31G(d)')
--------------------------------------------------------------------------

    Molecular point group: c1
  Charge       = 0
  Multiplicity = 1
  Basis Set: 6-31G(D)
  Basis Set:
  @DF-RHF Final Energy:  -157.27305960637770
    Total Energy =                       -157.2730596063776147
  Basis Set:
    Molecular point group: c1
  Basis Set: 6-31G(D)
  Basis Set:
  Basis Set:
	 Reference Energy          =    -157.2730596063777000 [Eh]
	 Singles Energy            =      -0.0000000000000000 [Eh]
	 Same-Spin Energy          =      -0.1253916325606156 [Eh]
	 Opposite-Spin Energy      =      -0.4216448993835413 [Eh]
	 Correlation Energy        =      -0.5470365319441569 [Eh]
	 Total Energy              =    -157.8200961383218441 [Eh]
	 SCS Total Energy          =    -157.8208306964914982 [Eh]
  Basis Set: 6-31G(D)
  Basis Set:
  @DF-RHF Final Energy:  -157.28344010356665
    Total Energy =                       -157.2834401035667042
  Basis Set:
  Basis Set: 6-31G(D)
  Basis Set:
  @DF-RHF Final Energy:  -157.28660408240958
    Total Energy =                       -157.2866040824095535
  @DF-RHF Final Energy:  -157.28796204642015
    Total Energy =                       -157.2879620464200912
  @DF-RHF Final Energy:  -157.28852850493516
    Total Energy =                       -157.2885285049350159
  @DF-RHF Final Energy:  -157.28857774991226
    Total Energy =                       -157.2885777499121787
  @DF-RHF Final Energy:  -157.28859469303629
    Total Energy =                       -157.2885946930360888
  @DF-RHF Final Energy:  -157.28862978359797
    Total Energy =                       -157.2886297835980827
  @DF-RHF Final Energy:  -157.28845123363379
    Total Energy =                       -157.2884512336337082
  @DF-RHF Final Energy:  -157.28852118434904
    Total Energy =                       -157.2885211843491504
  @DF-RHF Final Energy:  -157.28858019858413
    Total Energy =                       -157.2885801985838725
  @DF-RHF Final Energy:  -157.28860439345468
    Total Energy =                       -157.2886043934547899
  @DF-RHF Final Energy:  -157.28858919758690
    Total Energy =                       -157.2885891975869868
  @DF-RHF Final Energy:  -157.28858305717691
    Total Energy =                       -157.2885830571771351
  @DF-RHF Final Energy:  -157.28858976895521
    Total Energy =                       -157.2885897689551200
  @DF-RHF Final Energy:  -157.28858021795023
    Total Energy =                       -157.2885802179502548
  @DF-RHF Final Energy:  -157.28858291757734
    Total Energy =                       -157.2885829175775143
  @DF-RHF Final Energy:  -157.28857750231467
    Total Energy =                       -157.2885775023147517
  @DF-RHF Final Energy:  -157.28857979257961
    Total Energy =                       -157.2885797925796965
  @DF-RHF Final Energy:  -157.28857673761081
    Total Energy =                       -157.2885767376109527
  @DF-RHF Final Energy:  -157.28837845044711
    Total Energy =                       -157.2883784504471976
  @DF-RHF Final Energy:  -157.28814855071596
    Total Energy =                       -157.2881485507159027
  @DF-RHF Final Energy:  -157.28851228087680
    Total Energy =                       -157.2885122808767733
  @DF-RHF Final Energy:  -157.28854525861934
    Total Energy =                       -157.2885452586192230
  @DF-RHF Final Energy:  -157.28854589821282
    Total Energy =                       -157.2885458982125897
  @DF-RHF Final Energy:  -157.28819904726973
    Total Energy =                       -157.2881990472695861
  @DF-RHF Final Energy:  -157.28851485222771
    Total Energy =                       -157.2885148522277916
  @DF-RHF Final Energy:  -157.28853346585470
    Total Energy =                       -157.2885334658546128
  @DF-RHF Final Energy:  -157.28819454198990
    Total Energy =                       -157.2881945419899807
  @DF-RHF Final Energy:  -157.28846914296295
    Total Energy =                       -157.2884691429630664
  @DF-RHF Final Energy:  -157.28853116004518
    Total Energy =                       -157.2885311600453235
  @DF-RHF Final Energy:  -157.28853812472130
    Total Energy =                       -157.2885381247213274
  @DF-RHF Final Energy:  -157.28853912826122
    Total Energy =                       -157.2885391282611920
  @DF-RHF Final Energy:  -157.28853497278294
    Total Energy =                       -157.2885349727830260
  @DF-RHF Final Energy:  -157.28853612144405
    Total Energy =                       -157.2885361214438262
  @DF-RHF Final Energy:  -157.28791801483251
    Total Energy =                       -157.2879180148325986
  @DF-RHF Final Energy:  -157.28825958761257
    Total Energy =                       -157.2882595876123730
  @DF-RHF Final Energy:  -157.28715138221889
    Total Energy =                       -157.2871513822190082
  @DF-RHF Final Energy:  -157.28758292656235
    Total Energy =                       -157.2875829265624077
	 Singles Energy            =      -0.0000000000000000 [Eh]
	 Same-Spin Energy          =      -0.1241256259940043 [Eh]
	 Opposite-Spin Energy      =      -0.4227579228671597 [Eh]
	 Correlation Energy        =      -0.5468835488611640 [Eh]
	 Total Energy              =    -157.8344664754235112 [Eh]
	 SCS Total Energy          =    -157.8362676426676217 [Eh]
  Charge       = 0
  Multiplicity = 1
  Basis Set: 6-31G(D)
  Basis Set:

    Orbital Energies (a.u.)
    -----------------------

    Doubly Occupied:

       1A    -11.215689     2A    -11.215121     3A    -11.210450
       4A    -11.210308     5A     -1.064611     6A     -0.975242
       7A     -0.876273     8A     -0.769333     9A     -0.633170
      10A     -0.609968    11A     -0.567810    12A     -0.536377
      13A     -0.523383    14A     -0.510829    15A     -0.464436
      16A     -0.455331    17A     -0.444252

  @DF-RHF Final Energy:  -157.28748372291912

   => Energetics <=

    Nuclear Repulsion Energy =            132.4243225000631980
    One-Electron Energy =                -472.8584441361189192
    Two-Electron Energy =                 183.1466379131366580
    DFT Exchange-Correlation Energy =       0.0000000000000000
    Empirical Dispersion Energy =           0.0000000000000000
    PCM Polarization Energy =               0.0000000000000000
    EFP Energy =                            0.0000000000000000
    Total Energy =                       -157.2874837229190348
  Basis Set:
    Molecular point group: c1
  Basis Set: 6-31G(D)
  Basis Set:
  Basis Set:
	 Reference Energy          =    -157.2874837229191201 [Eh]
	 Singles Energy            =      -0.0000000000000000 [Eh]
	 Same-Spin Energy          =      -0.1242179293736331 [Eh]
	 Opposite-Spin Energy      =      -0.4225402391657864 [Eh]
	 Correlation Energy        =      -0.5467581685394195 [Eh]
	 Total Energy              =    -157.8342418914585323 [Eh]

	 ================> DF-SCS-MP2 Energies <==================
	-----------------------------------------------------------
	 SCS Same-Spin Scale       =       0.3333333333333333 [-]
	 SCS Opposite-Spin Scale   =       1.2000000000000000 [-]
	 SCS Same-Spin Energy      =      -0.0414059764578777 [Eh]
	 SCS Opposite-Spin Energy  =      -0.5070482869989437 [Eh]
	 SCS Correlation Energy    =      -0.5484542634568214 [Eh]
	 SCS Total Energy          =    -157.8359379863759386 [Eh]
	-----------------------------------------------------------

  -Total Gradient:
     Atom            X                  Y                   Z
    ------   -----------------  -----------------  -----------------
       1        0.002068169040     0.002151151730    -0.000749601755
       2       -0.004344041797     0.002963900863    -0.004378765335
       3       -0.000325728282     0.004144101756    -0.001967795517
       4        0.003647448860    -0.003518158219     0.003161002201
       5       -0.004405531449    -0.003023766017     0.004585805267
       6        0.002362092195     0.001153493149     0.001083424361
       7       -0.003884200689    -0.002058766154     0.001147200199
       8        0.002930218499    -0.001275664682    -0.000427368858
       9       -0.001084777430     0.004526515409    -0.009982970448
      10        0.001093435219    -0.004363838526     0.006822768167
      11       -0.003226734299    -0.000237690070     0.001508568778
      12        0.001535217948     0.000623655567    -0.000655351366
      13       -0.002271613947    -0.001851006353     0.006669357332
      14        0.005906046133     0.000766071546    -0.006816273027

    Molecular point group: c1

    Geometry (in Angstrom), charge = 0, multiplicity = 1:

    H           -1.805638899676     0.554405018613     0.610346603808
    H           -1.462082392350     2.135558809650    -0.105309906826
    H           -1.358219722332     0.704165913084    -1.098284963156
    C           -1.161990572838     1.075395459418    -0.089113945346
    H            0.853014847568     1.604396247399    -0.447281764400
    H            0.512038493959     1.427048312229     1.241511223354
    C            0.323289055466     0.960804611729     0.262492698619
    H            1.876706751948    -0.486449494705    -0.313833677877
    H            1.185595726586    -0.765580090070     1.238186071823
    C            0.920034842115    -0.482048981865     0.233525699272
    H            0.467349731557    -2.511157631031    -0.347124070471
    H           -0.269591087448    -1.307272375182    -1.400189765076
    H           -0.916220213162    -1.611003169398     0.216120533586
    C           -0.004314767770    -1.532660189715    -0.372818154169

*** Psi4 exiting successfully. Buy a developer a beer!
