                              Psi4 1.0.0 Driver

  ==> Input File <==

--------------------------------------------------------------------------

memory 1000 mb

molecule butane {
  symmetry C1
  0 1
  H      1.604   0.760   -8.260
  H      1.745   2.388   -8.880
  H      2.043   1.024   -9.930
  C      2.142   1.395   -8.932
  H      4.169   2.051   -9.210
  H      3.731   1.788   -7.539
  C      3.631   1.416   -8.537
  H      4.266   -0.317   -9.635
  H      5.179   -0.029   -8.175
  C      4.203   -0.012   -8.612
  H      3.678   -1.968   -7.897
  H      2.304   -0.960   -8.281
  H      3.218   -0.671   -6.820
  C      3.281   -0.976   -7.844
  units Angstrom
}

dih_string = "4 7 10 14 310"
set optking fixed_dihedral = $dih_string

optimize('B3LYP/cc-PVDZ')
--------------------------------------------------------------------------

    Molecular point group: c1
  Charge       = 0
  Multiplicity = 1
  Basis Set: CC-PVDZ
   => B3LYP Composite Functional <=
  Basis Set:
  @DF-RKS Final Energy:  -158.44401285363850
    Total Energy =                       -158.4440128536384975
    Molecular point group: c1
  Basis Set: CC-PVDZ
  Basis Set:
   => B3LYP Composite Functional <=
  Basis Set: CC-PVDZ
   => B3LYP Composite Functional <=
  Basis Set:
  @DF-RKS Final Energy:  -158.45117528153142
    Total Energy =                       -158.4511752815314196
  Basis Set: CC-PVDZ
  Basis Set:
   => B3LYP Composite Functional <=
  Basis Set: CC-PVDZ
   => B3LYP Composite Functional <=
  Basis Set:
  @DF-RKS Final Energy:  -158.45481305513772
    Total Energy =                       -158.4548130551377199
  Basis Set: CC-PVDZ
  Basis Set:
  @DF-RKS Final Energy:  -158.45615681432571
    Total Energy =                       -158.4561568143257091
  @DF-RKS Final Energy:  -158.45657208140565
    Total Energy =                       -158.4565720814056533
  @DF-RKS Final Energy:  -158.45666414667093
    Total Energy =                       -158.4566641466709314
  @DF-RKS Final Energy:  -158.45669365252775
    Total Energy =                       -158.4566936525277470
  @DF-RKS Final Energy:  -158.45669532952729
    Total Energy =                       -158.4566953295272924
  @DF-RKS Final Energy:  -158.45669037469969
    Total Energy =                       -158.4566903746996900
  @DF-RKS Final Energy:  -158.45668927157072
    Total Energy =                       -158.4566892715707240
  @DF-RKS Final Energy:  -158.45654719172586
    Total Energy =                       -158.4565471917258606
   => B3LYP Composite Functional <=
  Basis Set:
  @DF-RKS Final Energy:  -158.45668328025894
    Total Energy =                       -158.4566832802589431
  Basis Set: CC-PVDZ
  Basis Set:
   => B3LYP Composite Functional <=
  Basis Set: CC-PVDZ
   => B3LYP Composite Functional <=
  Basis Set:
  @DF-RKS Final Energy:  -158.45667419450916
    Total Energy =                       -158.4566741945091621
  Basis Set: CC-PVDZ
  Basis Set:
   => B3LYP Composite Functional <=
  Charge       = 0
  Multiplicity = 1
  Basis Set: CC-PVDZ
   => B3LYP Composite Functional <=
  Basis Set:

    Orbital Energies (a.u.)
    -----------------------

    Doubly Occupied:

       1A    -10.180550     2A    -10.180384     3A    -10.175374
       4A    -10.175361     5A     -0.789815     6A     -0.716055
       7A     -0.639041     8A     -0.559928     9A     -0.454640
      10A     -0.448478    11A     -0.410796    12A     -0.384273
      13A     -0.376941    14A     -0.356011    15A     -0.323673
      16A     -0.321623    17A     -0.315728

  @DF-RKS Final Energy:  -158.45667407300888

   => Energetics <=

    Nuclear Repulsion Energy =            131.9064192285131867
    One-Electron Energy =                -472.3107134854780043
    Two-Electron Energy =                 202.5313183093662985
    DFT Exchange-Correlation Energy =     -20.5836981254103684
    Empirical Dispersion Energy =           0.0000000000000000
    PCM Polarization Energy =               0.0000000000000000
    EFP Energy =                            0.0000000000000000
    Total Energy =                       -158.4566740730088839
    Molecular point group: c1
  Basis Set: CC-PVDZ
  Basis Set:
   => B3LYP Composite Functional <=

  -Total Gradient:
     Atom            X                  Y                   Z
    ------   -----------------  -----------------  -----------------
       1        0.000020502253     0.000008589459    -0.000010091283
       2       -0.000010008615    -0.000023109735    -0.000006975987
       3       -0.000005460345     0.000000237000     0.000016588517
       4       -0.000628776954    -0.000261446409     0.002115901583
       5       -0.000017277437     0.000002539293    -0.000035503807
       6        0.000033119536    -0.000002135456     0.000007744576
       7        0.000365521146     0.000207346273    -0.003742161111
       8        0.000019043726     0.000023400197    -0.000016170054
       9        0.000000122026    -0.000009614253     0.000038578282
      10        0.001365499456     0.000500899516     0.003473029366
      11       -0.000020599560     0.000009540956     0.000011853760
      12        0.000022677880     0.000008937481     0.000003727544
      13       -0.000007877991    -0.000005865338    -0.000015021774
      14       -0.001158943481    -0.000468500664    -0.001838011358

  **** Optimization is complete! (in 14 steps) ****
    Final optimized geometry and variables:
    Molecular point group: c1

    Geometry (in Angstrom), charge = 0, multiplicity = 1:

    H           -1.827298580949     0.540436241468     0.238837454456
    H           -1.495077637182     2.116541961038    -0.507753666495
    H           -1.356350171296     0.629736613420    -1.474239275895
    C           -1.171564914556     1.063391573061    -0.475430114230
    H            0.912370154908     1.594018134361    -0.746785353254
    H            0.429369195069     1.376393982375     0.935168770698
    C            0.304847633710     0.955852795452    -0.080989799638
    H            0.992343555777    -0.795203931688    -1.155968850670
    H            1.908198336017    -0.440982087888     0.308736620610
    C            0.884127922772    -0.469805000425    -0.103664331508
    H            0.569999933497    -2.494711703024     0.651418783443
    H           -0.931968731964    -1.668406819725     0.189694931838
    H           -0.104250743269    -1.226827884087     1.701079367604
    C            0.058400030535    -1.518448286957     0.648310431705

*** Psi4 exiting successfully. Buy a developer a beer!
