                               Psi4 1.1 release

  ==> Input File <==

--------------------------------------------------------------------------

memory 5 Gb

molecule phepyrOH_zwitterion {
  symmetry C1
  0 1
  C      1.885   -1.036   -0.112
  C      2.878   -1.652   2.002
  C      0.807   -0.463   0.561
  C      1.800   -1.079   2.676
  C      3.997   -3.567   -0.460
  C      5.161   -1.459   -0.393
  C      5.084   -4.111   -1.128
  C      6.219   -2.056   -1.062
  C      2.921   -1.631   0.608
  C      4.040   -2.226   -0.090
  C      0.764   -0.484   1.955
  N      6.151   -3.349   -1.407
  O      -0.227   0.042   2.574
  H      1.904   -1.011   -1.199
  H      3.678   -2.112   2.577
  H      0.011   -0.006   -0.025
  H      1.791   -1.108   3.764
  H      3.135   -4.189   -0.237
  H      5.222   -0.410   -0.116
  H      5.138   -5.140   -1.454
  H      7.127   -1.538   -1.338
  H      6.940   -3.769   -1.898
  units Angstrom
}

dih_string = "1 9 10 5 270"
set optking fixed_dihedral = $dih_string

optimize('MP2/aug-cc-PVTZ')
--------------------------------------------------------------------------

    Molecular point group: c1
  Charge       = 0
  Multiplicity = 1
  Basis Set: AUG-CC-PVTZ
    Blend: AUG-CC-PVTZ
  Basis Set: (AUG-CC-PVTZ AUX)
    Blend: AUG-CC-PVTZ-JKFIT
  @DF-RHF Final Energy:  -551.18530441294911
    Total Energy =                       -551.1853044129491082
  Basis Set: (AUG-CC-PVTZ AUX)
    Blend: AUG-CC-PVTZ-RI
    Molecular point group: c1
  Basis Set: AUG-CC-PVTZ
    Blend: AUG-CC-PVTZ
  Basis Set: (AUG-CC-PVTZ AUX)
    Blend: AUG-CC-PVTZ-JKFIT
  Basis Set: (AUG-CC-PVTZ AUX)
    Blend: AUG-CC-PVTZ-JKFIT
	 Reference Energy          =    -551.1853044129491082 [Eh]
	 Singles Energy            =      -0.0000000000000002 [Eh]
	 Same-Spin Energy          =      -0.6050970835047436 [Eh]
	 Opposite-Spin Energy      =      -1.8335732207444506 [Eh]
	 Correlation Energy        =      -2.4386703042491940 [Eh]
	 Total Energy              =    -553.6239747171982799 [Eh]
	 SCS Total Energy          =    -553.5872913056773541 [Eh]
  @DF-RHF Final Energy:  -551.19157373372218
    Total Energy =                       -551.1915737337221799
  @DF-RHF Final Energy:  -551.19536703842869
    Total Energy =                       -551.1953670384286852
  @DF-RHF Final Energy:  -551.19615553580934
    Total Energy =                       -551.1961555358093392
  @DF-RHF Final Energy:  -551.19610843551538
    Total Energy =                       -551.1961084355153844
  Charge       = 0
  Multiplicity = 1
  Basis Set: AUG-CC-PVTZ
    Blend: AUG-CC-PVTZ
  Basis Set: (AUG-CC-PVTZ AUX)
    Blend: AUG-CC-PVTZ-JKFIT

    Orbital Energies (a.u.)
    -----------------------

    Doubly Occupied:

       1A    -20.403130     2A    -15.739919     3A    -11.384063
       4A    -11.384033     5A    -11.334603     6A    -11.306656
       7A    -11.306625     8A    -11.222802     9A    -11.206701
      10A    -11.206675    11A    -11.188415    12A    -11.158226
      13A    -11.158213    14A     -1.415544    15A     -1.239607
      16A     -1.192276    17A     -1.140492    18A     -1.094084
      19A     -0.991433    20A     -0.968975    21A     -0.960914
      22A     -0.903472    23A     -0.866880    24A     -0.780376
      25A     -0.775530    26A     -0.765228    27A     -0.728945
      28A     -0.702054    29A     -0.694096    30A     -0.680419
      31A     -0.626436    32A     -0.598129    33A     -0.594877
      34A     -0.586513    35A     -0.540316    36A     -0.520605
      37A     -0.474701    38A     -0.473848    39A     -0.470145
      40A     -0.440786    41A     -0.439624    42A     -0.396245
      43A     -0.311516    44A     -0.302724    45A     -0.210867

  @DF-RHF Final Energy:  -551.19610030434524

   => Energetics <=

    Nuclear Repulsion Energy =            696.9982848416744901
    One-Electron Energy =               -2130.6133344875775038
    Two-Electron Energy =                 882.4189493415578909
    DFT Exchange-Correlation Energy =       0.0000000000000000
    Empirical Dispersion Energy =           0.0000000000000000
    PCM Polarization Energy =               0.0000000000000000
    EFP Energy =                            0.0000000000000000
    Total Energy =                       -551.1961003043452365
  Basis Set: (AUG-CC-PVTZ AUX)
    Blend: AUG-CC-PVTZ-RI
    Molecular point group: c1
  Basis Set: AUG-CC-PVTZ
    Blend: AUG-CC-PVTZ
  Basis Set: (AUG-CC-PVTZ AUX)
    Blend: AUG-CC-PVTZ-JKFIT
  Basis Set: (AUG-CC-PVTZ AUX)
    Blend: AUG-CC-PVTZ-JKFIT
	 Reference Energy          =    -551.1961003043452365 [Eh]
	 Singles Energy            =      -0.0000000000000012 [Eh]
	 Same-Spin Energy          =      -0.6037642937691088 [Eh]
	 Opposite-Spin Energy      =      -1.8320172644516226 [Eh]
	 Correlation Energy        =      -2.4357815582207327 [Eh]
	 Total Energy              =    -553.6318818625659333 [Eh]

	 ================> DF-SCS-MP2 Energies <==================
	-----------------------------------------------------------
	 SCS Same-Spin Scale       =       0.3333333333333333 [-]
	 SCS Opposite-Spin Scale   =       1.2000000000000000 [-]
	 SCS Same-Spin Energy      =      -0.2012547645897029 [Eh]
	 SCS Opposite-Spin Energy  =      -2.1984207173419472 [Eh]
	 SCS Correlation Energy    =      -2.3996754819316517 [Eh]
	 SCS Total Energy          =    -553.5957757862769313 [Eh]
	-----------------------------------------------------------

  -Total Gradient:
     Atom            X                  Y                   Z
    ------   -----------------  -----------------  -----------------
       1       -0.000084139908    -0.000117576137    -0.000015327835
       2        0.000059142647     0.000068024661     0.000025851272
       3        0.000061104761     0.000043573852    -0.000003326967
       4        0.000048157273     0.000049528581    -0.000022188991
       5       -0.000072279109     0.000047900770    -0.000134927897
       6        0.000014881099    -0.000011112261     0.000055689188
       7        0.000011946427    -0.000002069352    -0.000025884577
       8        0.000014054385    -0.000007937147    -0.000010924255
       9        0.000101627071     0.000060203360    -0.000111862989
      10        0.000009703283    -0.000045016856     0.000169962321
      11       -0.000115274785    -0.000174049160     0.000002509256
      12       -0.000027810012     0.000013630728     0.000031439924
      13        0.000034733168     0.000071629020     0.000005822544
      14       -0.000023770827    -0.000000451355    -0.000009720784
      15       -0.000008211041    -0.000009308584     0.000022648898
      16       -0.000025910553     0.000024483299    -0.000025827960
      17       -0.000000560065    -0.000009748679     0.000041799130
      18       -0.000020441393    -0.000016049931     0.000007317934
      19        0.000001625572     0.000025507109     0.000004237833
      20       -0.000000858103    -0.000006598934     0.000007762133
      21        0.000001388936     0.000006710586    -0.000001913350
      22        0.000020891166    -0.000011273571    -0.000013134827

  **** Optimization is complete! (in 6 steps) ****
    Final optimized geometry and variables:
    Molecular point group: c1

    Geometry (in Angstrom), charge = 0, multiplicity = 1:

    C           -1.304788987428     0.739815293474    -0.548228550419
    C           -0.316586358491     0.123786454381     1.561407704083
    C           -2.371142421212     1.305583070834     0.115699483733
    C           -1.382171513877     0.689564422237     2.226560440106
    C            0.852234450551    -1.803705557264    -0.923431613423
    C            2.005023078159     0.285375066600    -0.859027193154
    C            1.920977828991    -2.358307172181    -1.587174880079
    C            3.061340107143    -0.291711146680    -1.523498679201
    C           -0.256801528360     0.138374372168     0.161448820279
    C            0.861634814089    -0.457225150509    -0.536390893399
    C           -2.484866742936     1.320023094404     1.550185545491
    N            2.987357881337    -1.589260002484    -1.865324867761
    O           -3.455348792182     1.836134925947     2.155492656582
    H           -1.275047003805     0.759473558571    -1.631573561078
    H            0.485269464663    -0.337672712113     2.126194784604
    H           -3.171913175335     1.765904758561    -0.445794662076
    H           -1.413570569819     0.671069878914     3.306872564460
    H           -0.009776080817    -2.409555792967    -0.694238320494
    H            2.051439933369     1.325581000069    -0.578920721703
    H            1.969470669688    -3.385322008170    -1.908549635728
    H            3.963953207663     0.228805181086    -1.796894644725
    H            3.767928369857    -2.004951989702    -2.353223523436

*** Psi4 exiting successfully. Buy a developer a beer!
