                               Psi4 1.1 release

  ==> Input File <==

--------------------------------------------------------------------------

memory 5 Gb

molecule phepyrOH_cation {
  symmetry C1
  1 1
  C      1.885   -1.036   -0.112
  C      2.878   -1.652   2.002
  C      0.807   -0.463   0.561
  C      1.800   -1.079   2.676
  C      4.440   -1.719   -1.322
  C      4.716   -3.305   0.469
  C      5.516   -2.309   -1.970
  C      5.786   -3.855   -0.224
  C      2.921   -1.631   0.608
  C      4.040   -2.225   -0.090
  C      0.764   -0.484   1.955
  N      6.150   -3.348   -1.409
  O      -0.288   0.076   2.612
  H      1.904   -1.012   -1.199
  H      3.678   -2.112   2.578
  H      0.003   -0.001   -0.006
  H      1.772   -1.098   3.762
  H      3.931   -0.877   -1.782
  H      4.425   -3.721   1.429
  H      5.897   -1.982   -2.928
  H      6.368   -4.693   0.134
  H      6.938   -3.767   -1.902
  H      -0.796   0.645   2.011
  units Angstrom
}

dih_string = "3 11 13 23 345"
set optking fixed_dihedral = $dih_string

optimize('MP2/aug-cc-PVTZ')
--------------------------------------------------------------------------

    Molecular point group: c1
  Charge       = 1
  Multiplicity = 1
  Basis Set: AUG-CC-PVTZ
    Blend: AUG-CC-PVTZ
  Basis Set: (AUG-CC-PVTZ AUX)
    Blend: AUG-CC-PVTZ-JKFIT
  @DF-RHF Final Energy:  -551.67556316662501
    Total Energy =                       -551.6755631666250110
  Basis Set: (AUG-CC-PVTZ AUX)
    Blend: AUG-CC-PVTZ-RI
    Molecular point group: c1
  Basis Set: AUG-CC-PVTZ
    Blend: AUG-CC-PVTZ
  Basis Set: (AUG-CC-PVTZ AUX)
    Blend: AUG-CC-PVTZ-JKFIT
  Basis Set: (AUG-CC-PVTZ AUX)
    Blend: AUG-CC-PVTZ-JKFIT
	 Reference Energy          =    -551.6755631666250110 [Eh]
	 Singles Energy            =      -0.0000000000000003 [Eh]
	 Same-Spin Energy          =      -0.5966552136115896 [Eh]
	 Opposite-Spin Energy      =      -1.8255440970543046 [Eh]
	 Correlation Energy        =      -2.4221993106658948 [Eh]
	 Total Energy              =    -554.0977624772908712 [Eh]
	 SCS Total Energy          =    -554.0651011542939841 [Eh]
  @DF-RHF Final Energy:  -551.68110579944960
    Total Energy =                       -551.6811057994495968
  @DF-RHF Final Energy:  -551.68247964167449
    Total Energy =                       -551.6824796416744903
  @DF-RHF Final Energy:  -551.68253016706672
    Total Energy =                       -551.6825301670667159
  @DF-RHF Final Energy:  -551.68253140841182
    Total Energy =                       -551.6825314084118190
  @DF-RHF Final Energy:  -551.68254283758540
    Total Energy =                       -551.6825428375854017
  Charge       = 1
  Multiplicity = 1
  Basis Set: AUG-CC-PVTZ
    Blend: AUG-CC-PVTZ
  Basis Set: (AUG-CC-PVTZ AUX)
    Blend: AUG-CC-PVTZ-JKFIT

    Orbital Energies (a.u.)
    -----------------------

    Doubly Occupied:

       1A    -20.708795     2A    -15.825912     3A    -11.478283
       4A    -11.478115     5A    -11.449130     6A    -11.436183
       7A    -11.408275     8A    -11.407965     9A    -11.380816
      10A    -11.377390    11A    -11.373016    12A    -11.356102
      13A    -11.349553    14A     -1.531882    15A     -1.505149
      16A     -1.318331    17A     -1.266630    18A     -1.236327
      19A     -1.157522    20A     -1.156908    21A     -1.061405
      22A     -1.057596    23A     -0.979714    24A     -0.960868
      25A     -0.954456    26A     -0.873467    27A     -0.861717
      28A     -0.855387    29A     -0.819726    30A     -0.799523
      31A     -0.782980    32A     -0.770357    33A     -0.758797
      34A     -0.733131    35A     -0.725072    36A     -0.713746
      37A     -0.702032    38A     -0.682732    39A     -0.662790
      40A     -0.641081    41A     -0.618131    42A     -0.569136
      43A     -0.538185    44A     -0.474763    45A     -0.437097

  @DF-RHF Final Energy:  -551.68255442347242

   => Energetics <=

    Nuclear Repulsion Energy =            713.5636480497136063
    One-Electron Energy =               -2150.0200591052180243
    Two-Electron Energy =                 884.7738566320318796
    DFT Exchange-Correlation Energy =       0.0000000000000000
    Empirical Dispersion Energy =           0.0000000000000000
    PCM Polarization Energy =               0.0000000000000000
    EFP Energy =                            0.0000000000000000
    Total Energy =                       -551.6825544234724248
  Basis Set: (AUG-CC-PVTZ AUX)
    Blend: AUG-CC-PVTZ-RI
    Molecular point group: c1
  Basis Set: AUG-CC-PVTZ
    Blend: AUG-CC-PVTZ
  Basis Set: (AUG-CC-PVTZ AUX)
    Blend: AUG-CC-PVTZ-JKFIT
  Basis Set: (AUG-CC-PVTZ AUX)
    Blend: AUG-CC-PVTZ-JKFIT
	 Reference Energy          =    -551.6825544234724248 [Eh]
	 Singles Energy            =      -0.0000000000000003 [Eh]
	 Same-Spin Energy          =      -0.5957479134126056 [Eh]
	 Opposite-Spin Energy      =      -1.8234599808225225 [Eh]
	 Correlation Energy        =      -2.4192078942351283 [Eh]
	 Total Energy              =    -554.1017623177075393 [Eh]

	 ================> DF-SCS-MP2 Energies <==================
	-----------------------------------------------------------
	 SCS Same-Spin Scale       =       0.3333333333333333 [-]
	 SCS Opposite-Spin Scale   =       1.2000000000000000 [-]
	 SCS Same-Spin Energy      =      -0.1985826378042019 [Eh]
	 SCS Opposite-Spin Energy  =      -2.1881519769870268 [Eh]
	 SCS Correlation Energy    =      -2.3867346147912292 [Eh]
	 SCS Total Energy          =    -554.0692890382636051 [Eh]
	-----------------------------------------------------------

  -Total Gradient:
     Atom            X                  Y                   Z
    ------   -----------------  -----------------  -----------------
       1        0.000002820605     0.000052050070     0.000005870211
       2       -0.000040816614    -0.000007045997     0.000073708052
       3       -0.000878371210    -0.001612320446    -0.000074962811
       4        0.000083806864     0.000006281459    -0.000005996820
       5        0.000005916717     0.000021818300    -0.000026151213
       6        0.000010511565    -0.000028742162     0.000018791397
       7       -0.000005248760    -0.000033007459     0.000012940540
       8        0.000009066121     0.000023937340    -0.000012585830
       9       -0.000002798968    -0.000012677508    -0.000034505163
      10        0.000000705288    -0.000000981677     0.000000465593
      11        0.001633611231     0.002932587809     0.000266465348
      12       -0.000000251714     0.000003573106    -0.000002108632
      13       -0.002126608315    -0.003171150270    -0.000821485786
      14        0.000018095889    -0.000017098510     0.000002690008
      15        0.000009870134     0.000001841875    -0.000025023229
      16       -0.000000364235     0.000008895821     0.000005309263
      17       -0.000030875259     0.000008126119     0.000007132254
      18       -0.000007190622     0.000001689406     0.000017551569
      19       -0.000012955155     0.000009729917    -0.000009504140
      20        0.000009009669    -0.000005778830     0.000000907526
      21        0.000004095878    -0.000001677841    -0.000011110805
      22        0.000007737164    -0.000003422135    -0.000003777289
      23        0.001310233726     0.001823371621     0.000615379962

  **** Optimization is complete! (in 7 steps) ****
    Final optimized geometry and variables:
    Molecular point group: c1

    Geometry (in Angstrom), charge = 1, multiplicity = 1:

    C           -1.258979666451     0.774794456426    -0.563051175157
    C           -0.327115470529     0.079051406742     1.542433735045
    C           -2.334826001194     1.332767324519     0.096258387732
    C           -1.387104323591     0.655429564438     2.206315230807
    C            1.289044086501    -0.013159512538    -1.808601887246
    C            1.604101543451    -1.527707948225     0.009425060844
    C            2.350990319583    -0.592985382639    -2.454056112399
    C            2.663265443085    -2.084935019407    -0.660067292545
    C           -0.239120278388     0.132680351565     0.146054497453
    C            0.877304163367    -0.465374332617    -0.546877158739
    C           -2.397983375723     1.289888906739     1.487412744699
    N            3.008109826601    -1.607504384214    -1.867600509762
    O           -3.423143943361     1.792198436267     2.196489095683
    H           -1.248124526254     0.793239064267    -1.642275825728
    H            0.461159554473    -0.374575696880     2.123669869757
    H           -3.131331114272     1.796906174742    -0.466686531296
    H           -1.449173862455     0.636674281548     3.282913111914
    H            0.798371757177     0.820055583408    -2.283552696279
    H            1.326156049670    -1.947980296294     0.961589580525
    H            2.708660895045    -0.273041138925    -3.418495135708
    H            3.243880077751    -2.907439573780    -0.276857896800
    H            3.790765938487    -2.026699674968    -2.352409930672
    H           -3.965010689805     2.370112676093     1.647617386543

*** Psi4 exiting successfully. Buy a developer a beer!
