                               Psi4 1.1 release

  ==> Input File <==

--------------------------------------------------------------------------

memory 5 Gb

molecule phepyrOH_cation {
  symmetry C1
  1 1
  C      1.885   -1.036   -0.112
  C      2.878   -1.652   2.002
  C      0.807   -0.463   0.561
  C      1.800   -1.079   2.676
  C      4.251   -1.942   -1.436
  C      4.906   -3.082   0.583
  C      5.332   -2.527   -2.080
  C      5.970   -3.638   -0.113
  C      2.921   -1.631   0.608
  C      4.040   -2.225   -0.090
  C      0.764   -0.484   1.955
  N      6.150   -3.348   -1.409
  O      -0.288   0.076   2.612
  H      1.904   -1.012   -1.199
  H      3.678   -2.112   2.578
  H      0.003   -0.001   -0.006
  H      1.772   -1.098   3.762
  H      3.591   -1.277   -1.986
  H      4.765   -3.321   1.633
  H      5.573   -2.364   -3.122
  H      6.692   -4.311   0.328
  H      6.938   -3.768   -1.901
  H      -0.175   -0.018   3.571
  units Angstrom
}

dih_string = "1 9 10 5 15"
set optking fixed_dihedral = $dih_string

optimize('MP2/aug-cc-PVTZ')
--------------------------------------------------------------------------

    Molecular point group: c1
  Charge       = 1
  Multiplicity = 1
  Basis Set: AUG-CC-PVTZ
    Blend: AUG-CC-PVTZ
  Basis Set: (AUG-CC-PVTZ AUX)
    Blend: AUG-CC-PVTZ-JKFIT
  @DF-RHF Final Energy:  -551.67356509802983
    Total Energy =                       -551.6735650980298260
  Basis Set: (AUG-CC-PVTZ AUX)
    Blend: AUG-CC-PVTZ-RI
    Molecular point group: c1
  Basis Set: AUG-CC-PVTZ
    Blend: AUG-CC-PVTZ
  Basis Set: (AUG-CC-PVTZ AUX)
    Blend: AUG-CC-PVTZ-JKFIT
  Basis Set: (AUG-CC-PVTZ AUX)
    Blend: AUG-CC-PVTZ-JKFIT
	 Reference Energy          =    -551.6735650980298260 [Eh]
	 Singles Energy            =      -0.0000000000000002 [Eh]
	 Same-Spin Energy          =      -0.5969452370647704 [Eh]
	 Opposite-Spin Energy      =      -1.8265089369691550 [Eh]
	 Correlation Energy        =      -2.4234541740339255 [Eh]
	 Total Energy              =    -554.0970192720637897 [Eh]
	 SCS Total Energy          =    -554.0643575680810500 [Eh]
  @DF-RHF Final Energy:  -551.68036704738074
    Total Energy =                       -551.6803670473807415
  @DF-RHF Final Energy:  -551.68258607379539
    Total Energy =                       -551.6825860737953917
  @DF-RHF Final Energy:  -551.68263752328835
    Total Energy =                       -551.6826375232883493
  Charge       = 1
  Multiplicity = 1
  Basis Set: AUG-CC-PVTZ
    Blend: AUG-CC-PVTZ
  Basis Set: (AUG-CC-PVTZ AUX)
    Blend: AUG-CC-PVTZ-JKFIT

    Orbital Energies (a.u.)
    -----------------------

    Doubly Occupied:

       1A    -20.712175     2A    -15.823344     3A    -11.476542
       4A    -11.476473     5A    -11.449762     6A    -11.439101
       7A    -11.406864     8A    -11.406506     9A    -11.382673
      10A    -11.378878    11A    -11.374130    12A    -11.357124
      13A    -11.350336    14A     -1.535610    15A     -1.503279
      16A     -1.317932    17A     -1.267039    18A     -1.234748
      19A     -1.158732    20A     -1.157918    21A     -1.060249
      22A     -1.057864    23A     -0.981029    24A     -0.960193
      25A     -0.955646    26A     -0.875441    27A     -0.861774
      28A     -0.855167    29A     -0.820220    30A     -0.798747
      31A     -0.781025    32A     -0.769657    33A     -0.760406
      34A     -0.733734    35A     -0.722018    36A     -0.715619
      37A     -0.702008    38A     -0.687075    39A     -0.664824
      40A     -0.643844    41A     -0.619956    42A     -0.568619
      43A     -0.537311    44A     -0.476041    45A     -0.436778

  @DF-RHF Final Energy:  -551.68264633856700

   => Energetics <=

    Nuclear Repulsion Energy =            713.3205158155483332
    One-Electron Energy =               -2149.4974995217075957
    Two-Electron Energy =                 884.4943373675922658
    DFT Exchange-Correlation Energy =       0.0000000000000000
    Empirical Dispersion Energy =           0.0000000000000000
    PCM Polarization Energy =               0.0000000000000000
    EFP Energy =                            0.0000000000000000
    Total Energy =                       -551.6826463385669967
  Basis Set: (AUG-CC-PVTZ AUX)
    Blend: AUG-CC-PVTZ-RI
    Molecular point group: c1
  Basis Set: AUG-CC-PVTZ
    Blend: AUG-CC-PVTZ
  Basis Set: (AUG-CC-PVTZ AUX)
    Blend: AUG-CC-PVTZ-JKFIT
  Basis Set: (AUG-CC-PVTZ AUX)
    Blend: AUG-CC-PVTZ-JKFIT
	 Reference Energy          =    -551.6826463385669967 [Eh]
	 Singles Energy            =      -0.0000000000000006 [Eh]
	 Same-Spin Energy          =      -0.5956572565516243 [Eh]
	 Opposite-Spin Energy      =      -1.8237044129041939 [Eh]
	 Correlation Energy        =      -2.4193616694558187 [Eh]
	 Total Energy              =    -554.1020080080228354 [Eh]

	 ================> DF-SCS-MP2 Energies <==================
	-----------------------------------------------------------
	 SCS Same-Spin Scale       =       0.3333333333333333 [-]
	 SCS Opposite-Spin Scale   =       1.2000000000000000 [-]
	 SCS Same-Spin Energy      =      -0.1985524188505414 [Eh]
	 SCS Opposite-Spin Energy  =      -2.1884452954850326 [Eh]
	 SCS Correlation Energy    =      -2.3869977143355743 [Eh]
	 SCS Total Energy          =    -554.0696440529026177 [Eh]
	-----------------------------------------------------------

  -Total Gradient:
     Atom            X                  Y                   Z
    ------   -----------------  -----------------  -----------------
       1        0.000614074452     0.000756104031     0.000095186812
       2        0.000017643106     0.000029005539    -0.000049270099
       3       -0.000097884149     0.000120552065     0.000080166819
       4        0.000059246427    -0.000082386403    -0.000037282486
       5       -0.000520594669    -0.000838603163    -0.000249680017
       6       -0.000018430391     0.000034916418    -0.000064408343
       7       -0.000061935965     0.000070423408    -0.000057662510
       8       -0.000019178128    -0.000037825417     0.000072748380
       9       -0.001022643049    -0.001732349006    -0.000245365143
      10        0.001045426991     0.001664439379     0.000445970355
      11       -0.000045708539     0.000007578675     0.000008398370
      12        0.000019998615    -0.000007199836     0.000010803272
      13        0.000019799110    -0.000001028827    -0.000019755052
      14       -0.000077107493     0.000039124081     0.000009799080
      15        0.000019947449    -0.000005803109     0.000046585210
      16        0.000029206117    -0.000017260330    -0.000038785305
      17       -0.000013926083     0.000008517556    -0.000000467827
      18        0.000024468531    -0.000002611560    -0.000022242172
      19        0.000006656059     0.000005281402     0.000043244143
      20        0.000000118540    -0.000003193544     0.000004457022
      21        0.000002449456     0.000008403472    -0.000001625201
      22       -0.000000478861    -0.000000068555     0.000001915678
      23        0.000018852469    -0.000016016272    -0.000032730991

  **** Optimization is complete! (in 5 steps) ****
    Final optimized geometry and variables:
    Molecular point group: c1

    Geometry (in Angstrom), charge = 1, multiplicity = 1:

    C           -1.297344019858     0.720383093453    -0.545416079771
    C           -0.294750936769     0.117900381455     1.551677601509
    C           -2.362467061014     1.283854898387     0.120065492638
    C           -1.354148709154     0.689413412693     2.224552385416
    C            1.129531009260    -0.192434526810    -1.901167562091
    C            1.768977124403    -1.347026471707     0.083126978517
    C            2.192476135997    -0.760042022012    -2.554576866122
    C            2.823469216965    -1.898838262772    -0.596850457604
    C           -0.242390451937     0.118805896391     0.153416699273
    C            0.878829359720    -0.463641938349    -0.547062781273
    C           -2.399365506728     1.274066663793     1.512818609992
    N            3.010568177503    -1.594419537635    -1.891898438470
    O           -3.464899319428     1.844781426048     2.095063958917
    H           -1.317308439732     0.721603828871    -1.623568269562
    H            0.511600490476    -0.297050510983     2.135440593784
    H           -3.182248828265     1.731766569948    -0.419022161294
    H           -1.368589669316     0.690117566218     3.304770934345
    H            0.509728082992     0.490097886368    -2.456813755548
    H            1.633718056901    -1.634801491177     1.111658872324
    H            2.422906895119    -0.570484141054    -3.589722560989
    H            3.524166704442    -2.584692188058    -0.150584587130
    H            3.791396022939    -2.007900028439    -2.384143731576
    H           -3.400059105196     1.784821225627     3.054959373396

*** Psi4 exiting successfully. Buy a developer a beer!
