                               Psi4 1.1 release

  ==> Input File <==

--------------------------------------------------------------------------

memory 5 Gb

molecule phepyrF {
  symmetry C1
  0 1
  C      1.885   -1.036   -0.112
  C      0.807   -0.463   0.561
  C      2.921   -1.631   0.608
  C      0.764   -0.484   1.955
  C      4.700   -1.520   3.648
  C      4.248   -3.616   2.559
  C      5.720   -2.159   4.336
  C      5.288   -4.161   3.296
  C      2.878   -1.652   2.002
  C      3.955   -2.270   2.745
  C      1.800   -1.079   2.676
  N      6.034   -3.465   4.182
  F      1.744   -1.089   4.016
  H      1.918   -1.020   -1.198
  H      0.000   -0.000   -0.000
  H      3.755   -2.073   0.068
  H      -0.076   -0.038   2.480
  H      4.501   -0.467   3.821
  H      3.689   -4.233   1.863
  H      6.329   -1.618   5.053
  H      5.557   -5.206   3.187
  units Angstrom
}

dih_string = "3 9 10 5 120"
set optking fixed_dihedral = $dih_string

optimize('MP2/aug-cc-PVTZ')
--------------------------------------------------------------------------

    Molecular point group: c1
  Charge       = 0
  Multiplicity = 1
  Basis Set: AUG-CC-PVTZ
    Blend: AUG-CC-PVTZ
  Basis Set: (AUG-CC-PVTZ AUX)
    Blend: AUG-CC-PVTZ-JKFIT
  @DF-RHF Final Energy:  -575.28373190689194
    Total Energy =                       -575.2837319068919442
  Basis Set: (AUG-CC-PVTZ AUX)
    Blend: AUG-CC-PVTZ-RI
    Molecular point group: c1
  Basis Set: AUG-CC-PVTZ
    Blend: AUG-CC-PVTZ
  Basis Set: (AUG-CC-PVTZ AUX)
    Blend: AUG-CC-PVTZ-JKFIT
  Basis Set: (AUG-CC-PVTZ AUX)
    Blend: AUG-CC-PVTZ-JKFIT
	 Reference Energy          =    -575.2837319068919442 [Eh]
	 Singles Energy            =      -0.0000000000000002 [Eh]
	 Same-Spin Energy          =      -0.6078505657576809 [Eh]
	 Opposite-Spin Energy      =      -1.8320383633017354 [Eh]
	 Correlation Energy        =      -2.4398889290594163 [Eh]
	 Total Energy              =    -577.7236208359513512 [Eh]
	 SCS Total Energy          =    -577.6847947981066227 [Eh]
  @DF-RHF Final Energy:  -575.28933104675605
    Total Energy =                       -575.2893310467560468
  @DF-RHF Final Energy:  -575.29039679246353
    Total Energy =                       -575.2903967924635253
  @DF-RHF Final Energy:  -575.29028584635364
    Total Energy =                       -575.2902858463536404
  @DF-RHF Final Energy:  -575.29022824177969
    Total Energy =                       -575.2902282417796869
  @DF-RHF Final Energy:  -575.29024589661356
    Total Energy =                       -575.2902458966135555
  @DF-RHF Final Energy:  -575.29022645298721
    Total Energy =                       -575.2902264529872127
  @DF-RHF Final Energy:  -575.29026190352442
    Total Energy =                       -575.2902619035244243
  @DF-RHF Final Energy:  -575.29017509067785
    Total Energy =                       -575.2901750906778489
  Charge       = 0
  Multiplicity = 1
  Basis Set: AUG-CC-PVTZ
    Blend: AUG-CC-PVTZ
  Basis Set: (AUG-CC-PVTZ AUX)
    Blend: AUG-CC-PVTZ-JKFIT

    Orbital Energies (a.u.)
    -----------------------

    Doubly Occupied:

       1A    -26.316879     2A    -15.564414     3A    -11.337277
       4A    -11.273699     5A    -11.272803     6A    -11.268830
       7A    -11.261361     8A    -11.256644     9A    -11.256457
      10A    -11.251061    11A    -11.247353    12A    -11.240342
      13A    -11.239137    14A     -1.635758    15A     -1.260792
      16A     -1.186347    17A     -1.115555    18A     -1.039124
      19A     -1.035100    20A     -1.029055    21A     -0.892485
      22A     -0.870341    23A     -0.850754    24A     -0.826225
      25A     -0.756041    26A     -0.723236    27A     -0.713284
      28A     -0.703768    29A     -0.671848    30A     -0.666641
      31A     -0.652857    32A     -0.626419    33A     -0.612605
      34A     -0.598744    35A     -0.592428    36A     -0.550047
      37A     -0.538571    38A     -0.527684    39A     -0.518983
      40A     -0.510748    41A     -0.419491    42A     -0.398333
      43A     -0.355463    44A     -0.348983    45A     -0.340237

  @DF-RHF Final Energy:  -575.29024261051029

   => Energetics <=

    Nuclear Repulsion Energy =            715.5174967430781408
    One-Electron Energy =               -2202.9070737604552050
    Two-Electron Energy =                 912.0993344068668875
    DFT Exchange-Correlation Energy =       0.0000000000000000
    Empirical Dispersion Energy =           0.0000000000000000
    PCM Polarization Energy =               0.0000000000000000
    EFP Energy =                            0.0000000000000000
    Total Energy =                       -575.2902426105102904
  Basis Set: (AUG-CC-PVTZ AUX)
    Blend: AUG-CC-PVTZ-RI
    Molecular point group: c1
  Basis Set: AUG-CC-PVTZ
    Blend: AUG-CC-PVTZ
  Basis Set: (AUG-CC-PVTZ AUX)
    Blend: AUG-CC-PVTZ-JKFIT
  Basis Set: (AUG-CC-PVTZ AUX)
    Blend: AUG-CC-PVTZ-JKFIT
	 Reference Energy          =    -575.2902426105102904 [Eh]
	 Singles Energy            =      -0.0000000000000005 [Eh]
	 Same-Spin Energy          =      -0.6070351905417318 [Eh]
	 Opposite-Spin Energy      =      -1.8296577896575303 [Eh]
	 Correlation Energy        =      -2.4366929801992625 [Eh]
	 Total Energy              =    -577.7269355907095587 [Eh]

	 ================> DF-SCS-MP2 Energies <==================
	-----------------------------------------------------------
	 SCS Same-Spin Scale       =       0.3333333333333333 [-]
	 SCS Opposite-Spin Scale   =       1.2000000000000000 [-]
	 SCS Same-Spin Energy      =      -0.2023450635139106 [Eh]
	 SCS Opposite-Spin Energy  =      -2.1955893475890362 [Eh]
	 SCS Correlation Energy    =      -2.3979344111029475 [Eh]
	 SCS Total Energy          =    -577.6881770216132281 [Eh]
	-----------------------------------------------------------

  -Total Gradient:
     Atom            X                  Y                   Z
    ------   -----------------  -----------------  -----------------
       1       -0.000004365335    -0.000017334094    -0.000015942564
       2       -0.000006894135     0.000016956352     0.000008478934
       3        0.001209422314     0.002166072404     0.000071081793
       4        0.000019927437    -0.000004188026     0.000009431194
       5        0.001591865732     0.000567085874    -0.001829978557
       6       -0.000002421236     0.000014157753     0.000005693409
       7       -0.000009182632     0.000019314086    -0.000003493593
       8       -0.000020521686    -0.000018678132     0.000020560512
       9       -0.000987501954    -0.002896380575    -0.001010430080
      10       -0.001818772332     0.000186860943     0.002753661323
      11       -0.000041263951    -0.000032143890     0.000050301034
      12        0.000016088698    -0.000007658510    -0.000005931151
      13        0.000029731470     0.000002247800    -0.000040128558
      14        0.000003064393     0.000000690891     0.000001473955
      15        0.000001933016    -0.000000148981     0.000002203177
      16        0.000000202390     0.000002897936    -0.000010564289
      17       -0.000006613142     0.000002699963    -0.000005197662
      18        0.000006377144     0.000008664394    -0.000000254624
      19        0.000004823990    -0.000002849666    -0.000007357819
      20        0.000002877438    -0.000006535944     0.000007102103
      21        0.000011222387    -0.000001730586    -0.000000708539

  **** Optimization is complete! (in 10 steps) ****
    Final optimized geometry and variables:
    Molecular point group: c1

    Geometry (in Angstrom), charge = 0, multiplicity = 1:

    C           -1.385430750522     0.818248766366    -2.660107322085
    C           -2.442160565467     1.435167921115    -2.004578062348
    C           -0.379892096428     0.208002137694    -1.926564898973
    C           -2.490279310128     1.443880618159    -0.618127927276
    C            1.426209015194     0.309803751809     1.147996401393
    C            1.035875876371    -1.746443591071     0.025174835469
    C            2.481157150327    -0.306661117177     1.801645121727
    C            2.108012087017    -2.276462171885     0.726386598121
    C           -0.409522373444     0.193600997403    -0.533040786937
    C            0.672463895727    -0.422003475290     0.237866240594
    C           -1.475098609086     0.831268469753     0.086968018146
    N            2.831045447244    -1.580535642210     1.606004849734
    F           -1.530418418354     0.839909607307     1.431709247071
    H           -1.341240477482     0.819588880457    -3.737632879997
    H           -3.228555751490     1.913269597580    -2.567412945868
    H            0.452986926425    -0.262443864502    -2.427656702792
    H           -3.297681034145     1.912868976504    -0.079726233232
    H            1.193430249094     1.345278525516     1.342786901658
    H            0.482732738824    -2.358035825114    -0.671940170983
    H            3.077477222863     0.248301427087     2.512007213960
    H            2.399054157702    -3.306681778296     0.576502319367

*** Psi4 exiting successfully. Buy a developer a beer!
