                               Psi4 1.1 release

  ==> Input File <==

--------------------------------------------------------------------------

memory 5 Gb

molecule phepyrFOH_anion {
  symmetry C1
  -1 1
  C      1.885   -1.036   -0.112
  C      0.807   -0.463   0.561
  C      3.826   -3.268   -0.989
  C      5.328   -1.752   0.120
  C      1.800   -1.079   2.676
  C      4.928   -3.800   -1.638
  C      6.363   -2.352   -0.578
  C      2.921   -1.631   0.608
  C      4.038   -2.224   -0.095
  C      0.764   -0.484   1.955
  C      2.878   -1.652   2.002
  N      6.196   -3.368   -1.455
  O      -0.227   0.043   2.574
  F      3.866   -2.220   2.709
  H      1.904   -1.013   -1.200
  H      0.011   -0.007   -0.025
  H      2.834   -3.662   -1.184
  H      5.532   -0.939   0.810
  H      1.791   -1.109   3.764
  H      4.815   -4.614   -2.346
  H      7.388   -2.021   -0.445
  units Angstrom
}

dih_string = "1 8 9 3 300"
set optking fixed_dihedral = $dih_string

optimize('MP2/aug-cc-PVTZ')
--------------------------------------------------------------------------

    Molecular point group: c1
  Charge       = -1
  Multiplicity = 1
  Basis Set: AUG-CC-PVTZ
    Blend: AUG-CC-PVTZ
  Basis Set: (AUG-CC-PVTZ AUX)
    Blend: AUG-CC-PVTZ-JKFIT
  @DF-RHF Final Energy:  -649.60832180802970
    Total Energy =                       -649.6083218080298138
  Basis Set: (AUG-CC-PVTZ AUX)
    Blend: AUG-CC-PVTZ-RI
    Molecular point group: c1
  Basis Set: AUG-CC-PVTZ
    Blend: AUG-CC-PVTZ
  Basis Set: (AUG-CC-PVTZ AUX)
    Blend: AUG-CC-PVTZ-JKFIT
  Basis Set: (AUG-CC-PVTZ AUX)
    Blend: AUG-CC-PVTZ-JKFIT
	 Reference Energy          =    -649.6083218080297002 [Eh]
	 Singles Energy            =      -0.0000000000000005 [Eh]
	 Same-Spin Energy          =      -0.6857917324556038 [Eh]
	 Opposite-Spin Energy      =      -2.0256685479828649 [Eh]
	 Correlation Energy        =      -2.7114602804384691 [Eh]
	 Total Energy              =    -652.3197820884681732 [Eh]
	 SCS Total Energy          =    -652.2677213097609865 [Eh]
  @DF-RHF Final Energy:  -649.61540472352499
    Total Energy =                       -649.6154047235249891
  @DF-RHF Final Energy:  -649.61983385849112
    Total Energy =                       -649.6198338584911198
  @DF-RHF Final Energy:  -649.62161690990638
    Total Energy =                       -649.6216169099063791
  @DF-RHF Final Energy:  -649.62191087568385
    Total Energy =                       -649.6219108756838523
  @DF-RHF Final Energy:  -649.62198352527196
    Total Energy =                       -649.6219835252720713
  @DF-RHF Final Energy:  -649.62202090389951
    Total Energy =                       -649.6220209038995108
  @DF-RHF Final Energy:  -649.62201082251545
    Total Energy =                       -649.6220108225154490
  @DF-RHF Final Energy:  -649.62196953256205
    Total Energy =                       -649.6219695325621615
  @DF-RHF Final Energy:  -649.62195634623583
    Total Energy =                       -649.6219563462359474
  @DF-RHF Final Energy:  -649.62175969715327
    Total Energy =                       -649.6217596971532657
  @DF-RHF Final Energy:  -649.62168836095975
    Total Energy =                       -649.6216883609597517
  @DF-RHF Final Energy:  -649.62182390724399
    Total Energy =                       -649.6218239072441065
  @DF-RHF Final Energy:  -649.62179378810470
    Total Energy =                       -649.6217937881046964
  @DF-RHF Final Energy:  -649.62194953173457
    Total Energy =                       -649.6219495317345718
  @DF-RHF Final Energy:  -649.62163890505383
    Total Energy =                       -649.6216389050537146
  @DF-RHF Final Energy:  -649.62178578642579
    Total Energy =                       -649.6217857864257894
  @DF-RHF Final Energy:  -649.62183404885991
    Total Energy =                       -649.6218340488599097
  @DF-RHF Final Energy:  -649.62233368405180
    Total Energy =                       -649.6223336840519096
  @DF-RHF Final Energy:  -649.62119030749659
    Total Energy =                       -649.6211903074965903
  @DF-RHF Final Energy:  -649.62167156550424
    Total Energy =                       -649.6216715655041298
  Charge       = -1
  Multiplicity = 1
  Basis Set: AUG-CC-PVTZ
    Blend: AUG-CC-PVTZ
  Basis Set: (AUG-CC-PVTZ AUX)
    Blend: AUG-CC-PVTZ-JKFIT

    Orbital Energies (a.u.)
    -----------------------

    Doubly Occupied:

       1A    -26.173935     2A    -20.321957     3A    -15.456028
       4A    -11.188644     5A    -11.167876     6A    -11.166559
       7A    -11.151337     8A    -11.140285     9A    -11.124093
      10A    -11.122244    11A    -11.109517    12A    -11.083734
      13A    -11.064909    14A    -11.064849    15A     -1.485176
      16A     -1.154057    17A     -1.150779    18A     -1.023620
      19A     -0.967771    20A     -0.924971    21A     -0.873446
      22A     -0.849682    23A     -0.749560    24A     -0.741733
      25A     -0.694634    26A     -0.672080    27A     -0.609025
      28A     -0.572046    29A     -0.565986    30A     -0.554491
      31A     -0.547496    32A     -0.534539    33A     -0.507712
      34A     -0.487162    35A     -0.475932    36A     -0.452899
      37A     -0.436033    38A     -0.430676    39A     -0.408381
      40A     -0.385737    41A     -0.382801    42A     -0.367737
      43A     -0.314987    44A     -0.311959    45A     -0.258769
      46A     -0.242289    47A     -0.231456    48A     -0.205178
      49A     -0.119544

  @DF-RHF Final Energy:  -649.62179947624873

   => Energetics <=

    Nuclear Repulsion Energy =            797.4366107077750030
    One-Electron Energy =               -2484.0642027483295351
    Two-Electron Energy =                1037.0057925643059207
    DFT Exchange-Correlation Energy =       0.0000000000000000
    Empirical Dispersion Energy =           0.0000000000000000
    PCM Polarization Energy =               0.0000000000000000
    EFP Energy =                            0.0000000000000000
    Total Energy =                       -649.6217994762487251
  Basis Set: (AUG-CC-PVTZ AUX)
    Blend: AUG-CC-PVTZ-RI
    Molecular point group: c1
  Basis Set: AUG-CC-PVTZ
    Blend: AUG-CC-PVTZ
  Basis Set: (AUG-CC-PVTZ AUX)
    Blend: AUG-CC-PVTZ-JKFIT
  Basis Set: (AUG-CC-PVTZ AUX)
    Blend: AUG-CC-PVTZ-JKFIT
	 Reference Energy          =    -649.6217994762487251 [Eh]
	 Singles Energy            =      -0.0000000000000005 [Eh]
	 Same-Spin Energy          =      -0.6846330951419765 [Eh]
	 Opposite-Spin Energy      =      -2.0246429381629647 [Eh]
	 Correlation Energy        =      -2.7092760333049415 [Eh]
	 Total Energy              =    -652.3310755095536706 [Eh]

	 ================> DF-SCS-MP2 Energies <==================
	-----------------------------------------------------------
	 SCS Same-Spin Scale       =       0.3333333333333333 [-]
	 SCS Opposite-Spin Scale   =       1.2000000000000000 [-]
	 SCS Same-Spin Energy      =      -0.2282110317139922 [Eh]
	 SCS Opposite-Spin Energy  =      -2.4295715257955575 [Eh]
	 SCS Correlation Energy    =      -2.6577825575095502 [Eh]
	 SCS Total Energy          =    -652.2795820337582882 [Eh]
	-----------------------------------------------------------

  -Total Gradient:
     Atom            X                  Y                   Z
    ------   -----------------  -----------------  -----------------
       1        0.002864362432     0.005727963214     0.000580702094
       2        0.000103841787    -0.000052464324    -0.000074742633
       3        0.000857637943    -0.004606198247     0.004515153279
       4        0.000172789609     0.000018844601     0.000053882927
       5        0.000095404845    -0.000051552645     0.000004231671
       6       -0.000139527259     0.000017191650     0.000038215919
       7       -0.000088951715    -0.000067862067    -0.000079115595
       8       -0.003853744175    -0.010924493947     0.001530282828
       9       -0.000008088312     0.009739378118    -0.006666511892
      10       -0.000084053252    -0.000026446347    -0.000023556413
      11       -0.000125391896     0.000086975033    -0.000268801555
      12        0.000213551681     0.000018749821     0.000023089139
      13       -0.000070038899     0.000074626562     0.000067443393
      14        0.000153755144    -0.000073434905     0.000201294975
      15        0.000019829418     0.000002102525    -0.000096407674
      16       -0.000065640361     0.000040949983    -0.000005245921
      17       -0.000067886353    -0.000024331121    -0.000010360707
      18        0.000017531661     0.000104190645     0.000093287438
      19       -0.000017319052     0.000014141035     0.000157882824
      20       -0.000018919735    -0.000056086091    -0.000068735202
      21        0.000040856500     0.000037756503     0.000028011121

  **** Optimization is complete! (in 22 steps) ****
    Final optimized geometry and variables:
    Molecular point group: c1

    Geometry (in Angstrom), charge = -1, multiplicity = 1:

    C           -1.435973902675     0.654300926088    -0.743085570412
    C           -2.466681600747     1.287300671701    -0.087180014178
    C            0.656907214613    -1.472902041884    -1.745848896996
    C            2.097655391560    -0.064523921643    -0.512119237744
    C           -1.397309600576     0.806734626991     2.010501905984
    C            1.773140300685    -1.966155506188    -2.400204784332
    C            3.156507683749    -0.625456722919    -1.205198212866
    C           -0.357703132279     0.056203291657    -0.069503619156
    C            0.787817872910    -0.464517265924    -0.788013070489
    C           -2.523341104720     1.396978395139     1.343744905643
    C           -0.384240842709     0.205107359575     1.315573191574
    N            3.024668370136    -1.564157216164    -2.150490038228
    O           -3.467926782895     1.962053328535     1.961716073710
    F            0.657865759159    -0.327006164344     2.032932264448
    H           -1.434413077710     0.621161201846    -1.826235069825
    H           -3.271243456230     1.740181951696    -0.649459550961
    H           -0.324307233841    -1.862649087254    -1.975234730722
    H            2.278391348337     0.690208150030     0.237833354886
    H           -1.357773431889     0.837357538848     3.088734989193
    H            1.662447198619    -2.739463833874    -3.149808776556
    H            4.168228645180    -0.302953456055    -0.995074219087

*** Psi4 exiting successfully. Buy a developer a beer!
