                               Psi4 1.1 release

  ==> Input File <==

--------------------------------------------------------------------------

memory 1000 mb

molecule butane {
  symmetry C1
  0 1
  H      1.878   0.945   -9.687
  H      2.283   2.645   -9.673
  H      3.218   1.532   -10.642
  C      2.680   1.652   -9.726
  H      4.433   2.124   -8.577
  H      3.094   1.537   -7.620
  C      3.631   1.416   -8.537
  H      3.665   -0.647   -7.940
  H      4.104   -0.384   -9.610
  C      4.203   -0.012   -8.612
  H      6.088   -0.983   -8.270
  H      5.791   0.381   -7.220
  H      6.230   0.644   -8.890
  C      5.691   0.009   -8.218
  units Angstrom
}

dih_string = "14 10 7 4 140"
set optking fixed_dihedral = $dih_string

optimize('MP2/aug-cc-pvtz')
--------------------------------------------------------------------------

    Molecular point group: c1
  Charge       = 0
  Multiplicity = 1
  Basis Set: AUG-CC-PVTZ
    Blend: AUG-CC-PVTZ
  Basis Set: (AUG-CC-PVTZ AUX)
    Blend: AUG-CC-PVTZ-JKFIT
  @DF-RHF Final Energy:  -157.34824698587209
    Total Energy =                       -157.3482469858720947
  Basis Set: (AUG-CC-PVTZ AUX)
    Blend: AUG-CC-PVTZ-RI
    Molecular point group: c1
  Basis Set: AUG-CC-PVTZ
    Blend: AUG-CC-PVTZ
  Basis Set: (AUG-CC-PVTZ AUX)
    Blend: AUG-CC-PVTZ-JKFIT
  Basis Set: (AUG-CC-PVTZ AUX)
    Blend: AUG-CC-PVTZ-JKFIT
	 Reference Energy          =    -157.3482469858720947 [Eh]
	 Singles Energy            =      -0.0000000000000000 [Eh]
	 Same-Spin Energy          =      -0.1654921778068094 [Eh]
	 Opposite-Spin Energy      =      -0.6395103666828557 [Eh]
	 Correlation Energy        =      -0.8050025444896650 [Eh]
	 Total Energy              =    -158.1532495303617623 [Eh]
	 SCS Total Energy          =    -158.1708234851604686 [Eh]
  @DF-RHF Final Energy:  -157.35098231916606
    Total Energy =                       -157.3509823191660644
  @DF-RHF Final Energy:  -157.35185867216319
    Total Energy =                       -157.3518586721631891
  @DF-RHF Final Energy:  -157.35218532431537
    Total Energy =                       -157.3521853243153714
  @DF-RHF Final Energy:  -157.35222406267027
    Total Energy =                       -157.3522240626702740
  Charge       = 0
  Multiplicity = 1
  Basis Set: AUG-CC-PVTZ
    Blend: AUG-CC-PVTZ
  Basis Set: (AUG-CC-PVTZ AUX)
    Blend: AUG-CC-PVTZ-JKFIT

    Orbital Energies (a.u.)
    -----------------------

    Doubly Occupied:

       1A    -11.211246     2A    -11.210643     3A    -11.206520
       4A    -11.206513     5A     -1.072290     6A     -0.982183
       7A     -0.860989     8A     -0.788194     9A     -0.636761
      10A     -0.589586    11A     -0.583652    12A     -0.559694
      13A     -0.511990    14A     -0.502955    15A     -0.465451
      16A     -0.457845    17A     -0.455702

  @DF-RHF Final Energy:  -157.35223242246462

   => Energetics <=

    Nuclear Repulsion Energy =            131.5502464525070252
    One-Electron Energy =                -471.2005297868579419
    Two-Electron Energy =                 182.2980509118862642
    DFT Exchange-Correlation Energy =       0.0000000000000000
    Empirical Dispersion Energy =           0.0000000000000000
    PCM Polarization Energy =               0.0000000000000000
    EFP Energy =                            0.0000000000000000
    Total Energy =                       -157.3522324224646241
  Basis Set: (AUG-CC-PVTZ AUX)
    Blend: AUG-CC-PVTZ-RI
    Molecular point group: c1
  Basis Set: AUG-CC-PVTZ
    Blend: AUG-CC-PVTZ
  Basis Set: (AUG-CC-PVTZ AUX)
    Blend: AUG-CC-PVTZ-JKFIT
  Basis Set: (AUG-CC-PVTZ AUX)
    Blend: AUG-CC-PVTZ-JKFIT
	 Reference Energy          =    -157.3522324224646241 [Eh]
	 Singles Energy            =      -0.0000000000000000 [Eh]
	 Same-Spin Energy          =      -0.1654223514523210 [Eh]
	 Opposite-Spin Energy      =      -0.6398900513749799 [Eh]
	 Correlation Energy        =      -0.8053124028273009 [Eh]
	 Total Energy              =    -158.1575448252919216 [Eh]

	 ================> DF-SCS-MP2 Energies <==================
	-----------------------------------------------------------
	 SCS Same-Spin Scale       =       0.3333333333333333 [-]
	 SCS Opposite-Spin Scale   =       1.2000000000000000 [-]
	 SCS Same-Spin Energy      =      -0.0551407838174403 [Eh]
	 SCS Opposite-Spin Energy  =      -0.7678680616499759 [Eh]
	 SCS Correlation Energy    =      -0.8230088454674163 [Eh]
	 SCS Total Energy          =    -158.1752412679320514 [Eh]
	-----------------------------------------------------------

  -Total Gradient:
     Atom            X                  Y                   Z
    ------   -----------------  -----------------  -----------------
       1        0.000013554788     0.000001407795     0.000004642628
       2       -0.000001116884    -0.000006016316    -0.000005068525
       3       -0.000018872306     0.000002047651    -0.000005300701
       4        0.002024200540     0.000918184248    -0.001425334414
       5       -0.000026910159    -0.000027011446     0.000026179595
       6       -0.000010615275     0.000007887689    -0.000004518638
       7       -0.002494148944    -0.001081070361     0.001001654797
       8        0.000010538695    -0.000008008767     0.000004550322
       9       -0.000018951137     0.000006043987     0.000043105126
      10       -0.000137301433    -0.000171745661     0.002889178295
      11        0.000002585630     0.000007443360     0.000001803920
      12       -0.000009841000     0.000000161755    -0.000011331553
      13        0.000013065273    -0.000004778656     0.000013427199
      14        0.000653812213     0.000355454719    -0.002532988051

  **** Optimization is complete! (in 6 steps) ****
    Final optimized geometry and variables:
    Molecular point group: c1

    Geometry (in Angstrom), charge = 0, multiplicity = 1:

    H           -2.203419633910     0.152742674522    -0.943843258881
    H           -1.838588036022     1.874127448073    -0.895401660912
    H           -0.868088630811     0.792738374711    -1.891487984192
    C           -1.394939518841     0.882144311834    -0.943511884433
    H            0.358112634045     1.374988095290     0.167325547879
    H           -0.952422643952     0.797643812030     1.161378495697
    C           -0.442917041757     0.635371875915     0.212240509902
    H           -0.390115589702    -1.435805112838     0.823671796315
    H            0.089872006231    -1.162049048150    -0.829700219006
    C            0.176387976900    -0.762067975140     0.181844643475
    H            2.059082691790    -1.769313262024     0.569380782569
    H            1.772438940108    -0.357603880310     1.581074602819
    H            2.219399709164    -0.150396877116    -0.106538938017
    C            1.640785372954    -0.765280572450     0.580009251843

*** Psi4 exiting successfully. Buy a developer a beer!
