                               Psi4 1.1 release

  ==> Input File <==

--------------------------------------------------------------------------

memory 5 Gb

molecule phepyrFOH_anion {
  symmetry C1
  -1 1
  C      1.885   -1.036   -0.112
  C      0.807   -0.463   0.561
  C      4.323   -3.576   0.061
  C      4.830   -1.444   -0.931
  C      1.800   -1.079   2.676
  C      5.402   -4.096   -0.635
  C      5.886   -2.060   -1.582
  C      2.921   -1.631   0.608
  C      4.038   -2.224   -0.095
  C      0.764   -0.484   1.955
  C      2.878   -1.652   2.002
  N      6.194   -3.370   -1.455
  O      -0.227   0.043   2.574
  F      3.866   -2.220   2.709
  H      1.904   -1.013   -1.200
  H      0.011   -0.007   -0.025
  H      3.727   -4.217   0.704
  H      4.638   -0.386   -1.077
  H      1.791   -1.109   3.764
  H      5.665   -5.145   -0.548
  H      6.535   -1.495   -2.244
  units Angstrom
}

dih_string = "1 8 9 3 240"
set optking fixed_dihedral = $dih_string

optimize('MP2/aug-cc-PVTZ')
--------------------------------------------------------------------------

    Molecular point group: c1
  Charge       = -1
  Multiplicity = 1
  Basis Set: AUG-CC-PVTZ
    Blend: AUG-CC-PVTZ
  Basis Set: (AUG-CC-PVTZ AUX)
    Blend: AUG-CC-PVTZ-JKFIT
  @DF-RHF Final Energy:  -649.60838009233589
    Total Energy =                       -649.6083800923358922
  Basis Set: (AUG-CC-PVTZ AUX)
    Blend: AUG-CC-PVTZ-RI
    Molecular point group: c1
  Basis Set: AUG-CC-PVTZ
    Blend: AUG-CC-PVTZ
  Basis Set: (AUG-CC-PVTZ AUX)
    Blend: AUG-CC-PVTZ-JKFIT
  Basis Set: (AUG-CC-PVTZ AUX)
    Blend: AUG-CC-PVTZ-JKFIT
	 Reference Energy          =    -649.6083800923358922 [Eh]
	 Singles Energy            =      -0.0000000000000001 [Eh]
	 Same-Spin Energy          =      -0.6857857723217378 [Eh]
	 Opposite-Spin Energy      =      -2.0256429616715965 [Eh]
	 Correlation Energy        =      -2.7114287339933343 [Eh]
	 Total Energy              =    -652.3198088263292220 [Eh]
	 SCS Total Energy          =    -652.2677469037823812 [Eh]
  @DF-RHF Final Energy:  -649.61544028160006
    Total Energy =                       -649.6154402816000584
  @DF-RHF Final Energy:  -649.61985834632628
    Total Energy =                       -649.6198583463262821
  @DF-RHF Final Energy:  -649.62166145271317
    Total Energy =                       -649.6216614527131696
  @DF-RHF Final Energy:  -649.62204965113528
    Total Energy =                       -649.6220496511352849
  @DF-RHF Final Energy:  -649.62222236107368
    Total Energy =                       -649.6222223610736819
  @DF-RHF Final Energy:  -649.62233804643176
    Total Energy =                       -649.6223380464316506
  @DF-RHF Final Energy:  -649.62238097383602
    Total Energy =                       -649.6223809738360160
  @DF-RHF Final Energy:  -649.62237089062580
    Total Energy =                       -649.6223708906256888
  @DF-RHF Final Energy:  -649.62236088839268
    Total Energy =                       -649.6223608883926772
  @DF-RHF Final Energy:  -649.62234025786972
    Total Energy =                       -649.6223402578698369
  @DF-RHF Final Energy:  -649.62231736969113
    Total Energy =                       -649.6223173696912454
  @DF-RHF Final Energy:  -649.62230694987352
    Total Energy =                       -649.6223069498735185
  @DF-RHF Final Energy:  -649.62229981330108
    Total Energy =                       -649.6222998133011970
  @DF-RHF Final Energy:  -649.62220284413502
    Total Energy =                       -649.6222028441350176
  @DF-RHF Final Energy:  -649.62227405799217
    Total Energy =                       -649.6222740579921719
  @DF-RHF Final Energy:  -649.62224752703560
    Total Energy =                       -649.6222475270355972
  @DF-RHF Final Energy:  -649.62240282471976
    Total Energy =                       -649.6224028247197566
  @DF-RHF Final Energy:  -649.62131479393406
    Total Energy =                       -649.6213147939340615
  @DF-RHF Final Energy:  -649.62209226322284
    Total Energy =                       -649.6220922632228394
  @DF-RHF Final Energy:  -649.62225345214006
    Total Energy =                       -649.6222534521400576
  @DF-RHF Final Energy:  -649.62226663418119
    Total Energy =                       -649.6222666341811873
  @DF-RHF Final Energy:  -649.62230877972968
    Total Energy =                       -649.6223087797297921
  @DF-RHF Final Energy:  -649.62227617842291
    Total Energy =                       -649.6222761784229078
  @DF-RHF Final Energy:  -649.62098017752135
    Total Energy =                       -649.6209801775214601
  @DF-RHF Final Energy:  -649.62207674983142
    Total Energy =                       -649.6220767498314217
  @DF-RHF Final Energy:  -649.62220652681754
    Total Energy =                       -649.6222065268175356
  Charge       = -1
  Multiplicity = 1
  Basis Set: AUG-CC-PVTZ
    Blend: AUG-CC-PVTZ
  Basis Set: (AUG-CC-PVTZ AUX)
    Blend: AUG-CC-PVTZ-JKFIT

    Orbital Energies (a.u.)
    -----------------------

    Doubly Occupied:

       1A    -26.174538     2A    -20.322482     3A    -15.455460
       4A    -11.188522     5A    -11.167850     6A    -11.166361
       7A    -11.151591     8A    -11.140718     9A    -11.123279
      10A    -11.122175    11A    -11.109831    12A    -11.083796
      13A    -11.065243    14A    -11.065043    15A     -1.485792
      16A     -1.154655    17A     -1.150641    18A     -1.024131
      19A     -0.967832    20A     -0.924883    21A     -0.873886
      22A     -0.849955    23A     -0.749630    24A     -0.741911
      25A     -0.694928    26A     -0.672391    27A     -0.609090
      28A     -0.572378    29A     -0.566262    30A     -0.555086
      31A     -0.546833    32A     -0.534807    33A     -0.507938
      34A     -0.487080    35A     -0.476355    36A     -0.453389
      37A     -0.436149    38A     -0.430925    39A     -0.408047
      40A     -0.386715    41A     -0.383203    42A     -0.367693
      43A     -0.315182    44A     -0.312687    45A     -0.258479
      46A     -0.242463    47A     -0.231907    48A     -0.205586
      49A     -0.119518

  @DF-RHF Final Energy:  -649.62225609254551

   => Energetics <=

    Nuclear Repulsion Energy =            797.2415484572153446
    One-Electron Energy =               -2483.6570255274591545
    Two-Electron Energy =                1036.7932209776984109
    DFT Exchange-Correlation Energy =       0.0000000000000000
    Empirical Dispersion Energy =           0.0000000000000000
    PCM Polarization Energy =               0.0000000000000000
    EFP Energy =                            0.0000000000000000
    Total Energy =                       -649.6222560925455127
  Basis Set: (AUG-CC-PVTZ AUX)
    Blend: AUG-CC-PVTZ-RI
    Molecular point group: c1
  Basis Set: AUG-CC-PVTZ
    Blend: AUG-CC-PVTZ
  Basis Set: (AUG-CC-PVTZ AUX)
    Blend: AUG-CC-PVTZ-JKFIT
  Basis Set: (AUG-CC-PVTZ AUX)
    Blend: AUG-CC-PVTZ-JKFIT
	 Reference Energy          =    -649.6222560925455127 [Eh]
	 Singles Energy            =      -0.0000000000000004 [Eh]
	 Same-Spin Energy          =      -0.6846395555004257 [Eh]
	 Opposite-Spin Energy      =      -2.0246151690409890 [Eh]
	 Correlation Energy        =      -2.7092547245414154 [Eh]
	 Total Energy              =    -652.3315108170869507 [Eh]

	 ================> DF-SCS-MP2 Energies <==================
	-----------------------------------------------------------
	 SCS Same-Spin Scale       =       0.3333333333333333 [-]
	 SCS Opposite-Spin Scale   =       1.2000000000000000 [-]
	 SCS Same-Spin Energy      =      -0.2282131851668086 [Eh]
	 SCS Opposite-Spin Energy  =      -2.4295382028491868 [Eh]
	 SCS Correlation Energy    =      -2.6577513880159960 [Eh]
	 SCS Total Energy          =    -652.2800074805614940 [Eh]
	-----------------------------------------------------------

  -Total Gradient:
     Atom            X                  Y                   Z
    ------   -----------------  -----------------  -----------------
       1       -0.003199604719    -0.005464393700     0.000002160152
       2       -0.000015407833    -0.000053295303     0.000046829373
       3       -0.003890863948    -0.001484432609    -0.004985279903
       4        0.000000972948    -0.000036239677     0.000076715584
       5       -0.000022272216    -0.000028844797    -0.000027863311
       6        0.000013580948     0.000052294497     0.000017130636
       7       -0.000007412808     0.000027945553    -0.000012593931
       8        0.002675996456     0.007435418373    -0.002473348729
       9        0.004406649549    -0.000488136054     0.007398700152
      10        0.000122249241     0.000092572413    -0.000079386998
      11        0.000023762258     0.000046217792    -0.000031608743
      12       -0.000066342187    -0.000003566133     0.000036208432
      13       -0.000009134742    -0.000046486725    -0.000008222496
      14       -0.000025429066     0.000027298739    -0.000047780615
      15       -0.000002619190     0.000005404530     0.000044575753
      16        0.000020481945    -0.000021099710     0.000018323139
      17        0.000021888836     0.000015475616    -0.000021503628
      18        0.000006501477    -0.000055187306     0.000019277016
      19        0.000007851897    -0.000000092860    -0.000036625789
      20       -0.000011280422     0.000019731152    -0.000008357322
      21       -0.000049568414    -0.000040583784     0.000072651227

  **** Optimization is complete! (in 28 steps) ****
    Final optimized geometry and variables:
    Molecular point group: c1

    Geometry (in Angstrom), charge = -1, multiplicity = 1:

    C           -1.228007267187     0.912898477384    -0.722666753859
    C           -2.362630027931     1.394077640814    -0.111207966339
    C            1.223995369278    -1.698507919090    -0.531788530977
    C            1.650829859061     0.320362151419    -1.680342941190
    C           -1.514660738002     0.646159147490     2.009697068369
    C            2.219945295871    -2.284239797645    -1.293119467934
    C            2.620447676558    -0.351011532942    -2.406005918442
    C           -0.184786594378     0.297694574297    -0.010675702819
    C            0.919070695798    -0.344443091637    -0.693871560183
    C           -2.578136939634     1.305200053703     1.305968349773
    C           -0.413306528115     0.165724986256     1.356967537105
    N            2.927188879467    -1.640854641226    -2.230791001025
    O           -3.607040225972     1.754807539791     1.882318681868
    F            0.554884690240    -0.460404121534     2.100991468425
    H           -1.130849931162     0.986319680582    -1.799057880916
    H           -3.145246120992     1.848969763174    -0.701896094659
    H            0.679970049146    -2.284314595122     0.193049733816
    H            1.460342397781     1.367092578243    -1.867453029798
    H           -1.590584695362     0.534841688956     3.080334600679
    H            2.453769503406    -3.332436924360    -1.158882448636
    H            3.187222043649     0.174027437304    -3.164225411400

*** Psi4 exiting successfully. Buy a developer a beer!
