                              Psi4 1.0.0 Driver

  ==> Input File <==

--------------------------------------------------------------------------

memory 1000 mb

molecule butane {
  symmetry C1
  0 1
  H      1.604   0.760   -8.260
  H      1.745   2.388   -8.880
  H      2.043   1.024   -9.930
  C      2.142   1.395   -8.932
  H      4.169   2.051   -9.210
  H      3.731   1.788   -7.539
  C      3.631   1.416   -8.537
  H      3.482   -0.705   -8.233
  H      4.429   -0.253   -9.629
  C      4.203   -0.012   -8.612
  H      5.885   -1.088   -7.820
  H      5.263   0.145   -6.750
  H      6.210   0.597   -8.147
  C      5.488   -0.096   -7.768
  units Angstrom
}

dih_string = "4 7 10 14 200"
set optking fixed_dihedral = $dih_string

optimize('MP2/6-31G(d)')
--------------------------------------------------------------------------

    Molecular point group: c1
  Charge       = 0
  Multiplicity = 1
  Basis Set: 6-31G(D)
  Basis Set:
  @DF-RHF Final Energy:  -157.29254205960092
    Total Energy =                       -157.2925420596008337
  Basis Set:
    Molecular point group: c1
  Basis Set: 6-31G(D)
  Basis Set:
  Basis Set:
	 Reference Energy          =    -157.2925420596009189 [Eh]
	 Singles Energy            =      -0.0000000000000000 [Eh]
	 Same-Spin Energy          =      -0.1243666384584437 [Eh]
	 Opposite-Spin Energy      =      -0.4201899396420192 [Eh]
	 Correlation Energy        =      -0.5445565781004629 [Eh]
	 Total Energy              =    -157.8370986377013878 [Eh]
	 SCS Total Energy          =    -157.8382255333241631 [Eh]
  Basis Set: 6-31G(D)
  Basis Set:
  @DF-RHF Final Energy:  -157.29543622531369
    Total Energy =                       -157.2954362253138356
  Basis Set:
  Basis Set: 6-31G(D)
  Basis Set:
  @DF-RHF Final Energy:  -157.29623911816347
    Total Energy =                       -157.2962391181633279
  @DF-RHF Final Energy:  -157.29650533126900
    Total Energy =                       -157.2965053312689179
  @DF-RHF Final Energy:  -157.29656682931503
    Total Energy =                       -157.2965668293149690
  @DF-RHF Final Energy:  -157.29658234351521
    Total Energy =                       -157.2965823435150412
  @DF-RHF Final Energy:  -157.29656225712026
    Total Energy =                       -157.2965622571203994
	 Singles Energy            =      -0.0000000000000000 [Eh]
	 Same-Spin Energy          =      -0.1244162577455309 [Eh]
	 Opposite-Spin Energy      =      -0.4222498738541074 [Eh]
	 Correlation Energy        =      -0.5466661315996383 [Eh]
	 Total Energy              =    -157.8432283887198935 [Eh]
	 SCS Total Energy          =    -157.8447341916603648 [Eh]
  Charge       = 0
  Multiplicity = 1
  Basis Set: 6-31G(D)
  Basis Set:

    Orbital Energies (a.u.)
    -----------------------

    Doubly Occupied:

       1A    -11.215710     2A    -11.215116     3A    -11.210345
       4A    -11.210340     5A     -1.069931     6A     -0.979749
       7A     -0.859392     8A     -0.786392     9A     -0.636755
      10A     -0.583251    11A     -0.578690    12A     -0.563750
      13A     -0.513014    14A     -0.496436    15A     -0.467031
      16A     -0.459229    17A     -0.455711

  @DF-RHF Final Energy:  -157.29657208519390

   => Energetics <=

    Nuclear Repulsion Energy =            130.7967814068245218
    One-Electron Energy =                -469.5850274385154535
    Two-Electron Energy =                 181.4916739464970874
    DFT Exchange-Correlation Energy =       0.0000000000000000
    Empirical Dispersion Energy =           0.0000000000000000
    PCM Polarization Energy =               0.0000000000000000
    EFP Energy =                            0.0000000000000000
    Total Energy =                       -157.2965720851938727
  Basis Set:
    Molecular point group: c1
  Basis Set: 6-31G(D)
  Basis Set:
  Basis Set:
	 Reference Energy          =    -157.2965720851939011 [Eh]
	 Singles Energy            =      -0.0000000000000000 [Eh]
	 Same-Spin Energy          =      -0.1244124115069295 [Eh]
	 Opposite-Spin Energy      =      -0.4222442409889325 [Eh]
	 Correlation Energy        =      -0.5466566524958620 [Eh]
	 Total Energy              =    -157.8432287376897705 [Eh]

	 ================> DF-SCS-MP2 Energies <==================
	-----------------------------------------------------------
	 SCS Same-Spin Scale       =       0.3333333333333333 [-]
	 SCS Opposite-Spin Scale   =       1.2000000000000000 [-]
	 SCS Same-Spin Energy      =      -0.0414708038356432 [Eh]
	 SCS Opposite-Spin Energy  =      -0.5066930891867191 [Eh]
	 SCS Correlation Energy    =      -0.5481638930223622 [Eh]
	 SCS Total Energy          =    -157.8447359782162494 [Eh]
	-----------------------------------------------------------

  -Total Gradient:
     Atom            X                  Y                   Z
    ------   -----------------  -----------------  -----------------
       1       -0.000012885377    -0.000006450241     0.000001816011
       2       -0.000009861935     0.000008544479     0.000001054575
       3       -0.000006146946    -0.000002774454    -0.000010614449
       4       -0.000647996282    -0.000375301525     0.002557037485
       5        0.000006609468     0.000002455370     0.000001456657
       6        0.000005305814     0.000009356384    -0.000011987340
       7        0.000361797721     0.000251442647    -0.002702131232
       8        0.000006418457    -0.000003331110    -0.000014471129
       9       -0.000005242498    -0.000001867983    -0.000005563123
      10        0.001743453786     0.000818899021    -0.001944799513
      11        0.000007217872    -0.000010376307     0.000004322840
      12        0.000005958886     0.000002920120     0.000012338059
      13        0.000010686513     0.000005038532    -0.000000958571
      14       -0.001465315478    -0.000698554934     0.002112499729

  **** Optimization is complete! (in 8 steps) ****
    Final optimized geometry and variables:
    Molecular point group: c1

    Geometry (in Angstrom), charge = 0, multiplicity = 1:

    H           -2.318365164114     0.111245503619     0.198253529753
    H           -2.149951403923     1.739213059486    -0.473281075831
    H           -1.869767633331     0.325668295538    -1.497417566151
    C           -1.732734620656     0.728420680936    -0.489051387000
    H            0.311046115815     1.399895076765    -0.737180014815
    H           -0.169303797706     1.123223917470     0.926343020980
    C           -0.260734418103     0.723342295079    -0.091345795761
    H           -0.366608420181    -1.395714176501     0.256883044898
    H            0.553236758450    -0.960440986453    -1.171057298053
    C            0.361410795293    -0.672153072892    -0.130935211978
    H            2.077991352138    -1.775801892358     0.632159500448
    H            1.438072301496    -0.558844166809     1.745318254214
    H            2.392140508396    -0.060054801210     0.344073638924
    C            1.640583551560    -0.775275401315     0.692511679305

*** Psi4 exiting successfully. Buy a developer a beer!
