                              Psi4 1.0.0 Driver

  ==> Input File <==

--------------------------------------------------------------------------

memory 1000 mb

molecule butane {
  symmetry C1
  0 1
  H      1.604   0.760   -8.260
  H      1.745   2.388   -8.880
  H      2.043   1.024   -9.930
  C      2.142   1.395   -8.932
  H      4.169   2.051   -9.210
  H      3.731   1.788   -7.539
  C      3.631   1.416   -8.537
  H      5.269   0.035   -8.685
  H      3.929   -0.553   -7.731
  C      4.203   -0.012   -8.612
  H      4.033   -1.721   -9.902
  H      3.908   -0.189   -10.732
  H      2.568   -0.776   -9.778
  C      3.635   -0.729   -9.850
  units Angstrom
}

dih_string = "4 7 10 14 40"
set optking fixed_dihedral = $dih_string

optimize('B3LYP/cc-PVDZ')
--------------------------------------------------------------------------

    Molecular point group: c1
  Charge       = 0
  Multiplicity = 1
  Basis Set: CC-PVDZ
   => B3LYP Composite Functional <=
  Basis Set:
  @DF-RKS Final Energy:  -158.44130834016045
    Total Energy =                       -158.4413083401604467
    Molecular point group: c1
  Basis Set: CC-PVDZ
  Basis Set:
   => B3LYP Composite Functional <=
  Basis Set: CC-PVDZ
   => B3LYP Composite Functional <=
  Basis Set:
  @DF-RKS Final Energy:  -158.44913203732472
    Total Energy =                       -158.4491320373247163
  Basis Set: CC-PVDZ
  Basis Set:
   => B3LYP Composite Functional <=
  Basis Set: CC-PVDZ
   => B3LYP Composite Functional <=
  Basis Set:
  @DF-RKS Final Energy:  -158.45311845955953
    Total Energy =                       -158.4531184595595334
  Basis Set: CC-PVDZ
  Basis Set:
  @DF-RKS Final Energy:  -158.45467824758643
    Total Energy =                       -158.4546782475864291
  @DF-RKS Final Energy:  -158.45520972015808
    Total Energy =                       -158.4552097201580807
  @DF-RKS Final Energy:  -158.45534880591225
    Total Energy =                       -158.4553488059122515
  @DF-RKS Final Energy:  -158.45538965953483
    Total Energy =                       -158.4553896595348306
  @DF-RKS Final Energy:  -158.45539736965847
    Total Energy =                       -158.4553973696584706
  @DF-RKS Final Energy:  -158.45539929579348
    Total Energy =                       -158.4553992957934838
  @DF-RKS Final Energy:  -158.45539970643222
    Total Energy =                       -158.4553997064322175
  @DF-RKS Final Energy:  -158.45540011466613
    Total Energy =                       -158.4554001146661335
  @DF-RKS Final Energy:  -158.45540059849876
    Total Energy =                       -158.4554005984987555
  @DF-RKS Final Energy:  -158.45511463650379
    Total Energy =                       -158.4551146365037937
  @DF-RKS Final Energy:  -158.45494088415933
    Total Energy =                       -158.4549408841593277
  @DF-RKS Final Energy:  -158.45493484112174
    Total Energy =                       -158.4549348411217409
  @DF-RKS Final Energy:  -158.45531406174436
    Total Energy =                       -158.4553140617443603
  @DF-RKS Final Energy:  -158.45538715238564
    Total Energy =                       -158.4553871523856401
  @DF-RKS Final Energy:  -158.45489579555706
    Total Energy =                       -158.4548957955570643
  @DF-RKS Final Energy:  -158.45463835618915
    Total Energy =                       -158.4546383561891503
  @DF-RKS Final Energy:  -158.45491053524060
    Total Energy =                       -158.4549105352406002
  @DF-RKS Final Energy:  -158.45526762315623
    Total Energy =                       -158.4552676231562316
  @DF-RKS Final Energy:  -158.45532421423655
    Total Energy =                       -158.4553242142365548
  @DF-RKS Final Energy:  -158.45533474984325
    Total Energy =                       -158.4553347498432458
  @DF-RKS Final Energy:  -158.45534151548125
    Total Energy =                       -158.4553415154812512
  @DF-RKS Final Energy:  -158.45532588348939
    Total Energy =                       -158.4553258834893938
  @DF-RKS Final Energy:  -158.45533327314817
    Total Energy =                       -158.4553332731481703
  @DF-RKS Final Energy:  -158.45471444210949
    Total Energy =                       -158.4547144421094913
  @DF-RKS Final Energy:  -158.45533296927164
    Total Energy =                       -158.4553329692716375
  @DF-RKS Final Energy:  -158.45527512610471
    Total Energy =                       -158.4552751261047092
  @DF-RKS Final Energy:  -158.45530911639270
    Total Energy =                       -158.4553091163926979
  @DF-RKS Final Energy:  -158.45531935011687
    Total Energy =                       -158.4553193501168664
  @DF-RKS Final Energy:  -158.45532422253768
    Total Energy =                       -158.4553242225376835
  @DF-RKS Final Energy:  -158.45532227022449
    Total Energy =                       -158.4553222702244852
  @DF-RKS Final Energy:  -158.45532149027591
    Total Energy =                       -158.4553214902759066
  @DF-RKS Final Energy:  -158.45532201272943
    Total Energy =                       -158.4553220127294253
  @DF-RKS Final Energy:  -158.45519790455367
    Total Energy =                       -158.4551979045536712
  @DF-RKS Final Energy:  -158.45532433595571
    Total Energy =                       -158.4553243359557086
   => B3LYP Composite Functional <=
  Basis Set:
  @DF-RKS Final Energy:  -158.45532103593135
    Total Energy =                       -158.4553210359313482
  Basis Set: CC-PVDZ
  Basis Set:
   => B3LYP Composite Functional <=
  Basis Set: CC-PVDZ
   => B3LYP Composite Functional <=
  Basis Set:
  @DF-RKS Final Energy:  -158.45498980390894
    Total Energy =                       -158.4549898039089442
  Basis Set: CC-PVDZ
  Basis Set:
   => B3LYP Composite Functional <=
  Charge       = 0
  Multiplicity = 1
  Basis Set: CC-PVDZ
   => B3LYP Composite Functional <=
  Basis Set:

    Orbital Energies (a.u.)
    -----------------------

    Doubly Occupied:

       1A    -10.180675     2A    -10.180506     3A    -10.175324
       4A    -10.175278     5A     -0.789107     6A     -0.715705
       7A     -0.639787     8A     -0.558459     9A     -0.456371
      10A     -0.447620    11A     -0.409205    12A     -0.385909
      13A     -0.375263    14A     -0.356390    15A     -0.325747
      16A     -0.321608    17A     -0.312285

  @DF-RKS Final Energy:  -158.45531306682102

   => Energetics <=

    Nuclear Repulsion Energy =            132.0035883084079558
    One-Electron Energy =                -472.5096679103801307
    Two-Electron Energy =                 202.6337826661451516
    DFT Exchange-Correlation Energy =     -20.5830161309940110
    Empirical Dispersion Energy =           0.0000000000000000
    PCM Polarization Energy =               0.0000000000000000
    EFP Energy =                            0.0000000000000000
    Total Energy =                       -158.4553130668210201
    Molecular point group: c1
  Basis Set: CC-PVDZ
  Basis Set:
   => B3LYP Composite Functional <=

  -Total Gradient:
     Atom            X                  Y                   Z
    ------   -----------------  -----------------  -----------------
       1        0.000138205709     0.000015954649    -0.000016533104
       2       -0.000069798763     0.000110158864     0.000029700168
       3        0.000026810930     0.000001123407     0.000036264471
       4        0.001043555581     0.000403665614    -0.003511068824
       5        0.000077958668     0.000255475924    -0.000310655933
       6       -0.000035594009    -0.000012384176     0.000169874679
       7       -0.002771436716    -0.001193377797     0.005404483100
       8        0.000223497976     0.000104324397    -0.000281969376
       9       -0.000221597878    -0.000366755232     0.000281426275
      10        0.004496192955     0.001682058699    -0.003516575636
      11       -0.000012446801    -0.000011441588     0.000009416254
      12        0.000011897507    -0.000058481772     0.000149107707
      13        0.000045889944    -0.000024073724     0.000023026606
      14       -0.002970225891    -0.000912031058     0.001519281290

    Molecular point group: c1

    Geometry (in Angstrom), charge = 0, multiplicity = 1:

    H           -1.928918002576     0.310541120246     0.657964766880
    H           -1.659102674681     2.021852032639     0.259275060012
    H           -1.436449520153     0.775827300226    -0.986440831966
    C           -1.286866642378     0.999736348892     0.081335370237
    H            0.771567770835     1.575287015734    -0.141264901382
    H            0.315967797094     1.232413962756     1.527043210261
    C            0.185037962340     0.878978797288     0.489246648000
    H            1.893598859057    -0.451195255673     0.396952869855
    H            0.508532564673    -1.126453101228     1.256166940126
    C            0.793141797957    -0.534732876549     0.364479661767
    H            0.894970196681    -2.290692773886    -0.925879741345
    H            0.608159389633    -0.775728714282    -1.810009219714
    H           -0.709869481450    -1.532572704052    -0.885992844784
    C            0.370965690366    -1.322085497245    -0.880287675155

*** Psi4 exiting successfully. Buy a developer a beer!
