                               Psi4 1.1 release

  ==> Input File <==

--------------------------------------------------------------------------

memory 5 Gb

molecule phepyrOH_neutral {
  symmetry C1
  0 1
  C      1.885   -1.036   -0.112
  C      2.878   -1.652   2.002
  C      0.807   -0.463   0.561
  C      1.800   -1.079   2.676
  C      3.862   -2.773   -1.356
  C      5.298   -2.250   0.501
  C      4.965   -3.329   -1.983
  C      6.337   -2.829   -0.209
  C      2.921   -1.631   0.608
  C      4.040   -2.225   -0.090
  C      0.764   -0.484   1.955
  N      6.202   -3.372   -1.440
  O      -0.288   0.076   2.612
  H      1.904   -1.012   -1.199
  H      3.678   -2.112   2.578
  H      0.003   -0.001   -0.006
  H      1.772   -1.098   3.762
  H      2.895   -2.772   -1.850
  H      5.475   -1.833   1.487
  H      4.879   -3.768   -2.972
  H      7.337   -2.875   0.208
  H      -0.922   0.446   1.977
  units Angstrom
}

dih_string = "3 11 13 22 0.001"
set optking fixed_dihedral = $dih_string

optimize('MP2/aug-cc-PVTZ')
--------------------------------------------------------------------------

    Molecular point group: c1
  Charge       = 0
  Multiplicity = 1
  Basis Set: AUG-CC-PVTZ
    Blend: AUG-CC-PVTZ
  Basis Set: (AUG-CC-PVTZ AUX)
    Blend: AUG-CC-PVTZ-JKFIT
  @DF-RHF Final Energy:  -551.28545312591996
    Total Energy =                       -551.2854531259199575
  Basis Set: (AUG-CC-PVTZ AUX)
    Blend: AUG-CC-PVTZ-RI
    Molecular point group: c1
  Basis Set: AUG-CC-PVTZ
    Blend: AUG-CC-PVTZ
  Basis Set: (AUG-CC-PVTZ AUX)
    Blend: AUG-CC-PVTZ-JKFIT
  Basis Set: (AUG-CC-PVTZ AUX)
    Blend: AUG-CC-PVTZ-JKFIT
	 Reference Energy          =    -551.2854531259199575 [Eh]
	 Singles Energy            =      -0.0000000000000001 [Eh]
	 Same-Spin Energy          =      -0.6052629982271974 [Eh]
	 Opposite-Spin Energy      =      -1.8311341152790390 [Eh]
	 Correlation Energy        =      -2.4363971135062363 [Eh]
	 Total Energy              =    -553.7218502394262032 [Eh]
	 SCS Total Energy          =    -553.6845683969971788 [Eh]
  @DF-RHF Final Energy:  -551.29153459648978
    Total Energy =                       -551.2915345964897824
  @DF-RHF Final Energy:  -551.29301559284988
    Total Energy =                       -551.2930155928498834
  @DF-RHF Final Energy:  -551.29308349961366
    Total Energy =                       -551.2930834996136582
  @DF-RHF Final Energy:  -551.29317831474839
    Total Energy =                       -551.2931783147483884
  @DF-RHF Final Energy:  -551.29321715954745
    Total Energy =                       -551.2932171595474529
  Charge       = 0
  Multiplicity = 1
  Basis Set: AUG-CC-PVTZ
    Blend: AUG-CC-PVTZ
  Basis Set: (AUG-CC-PVTZ AUX)
    Blend: AUG-CC-PVTZ-JKFIT

    Orbital Energies (a.u.)
    -----------------------

    Doubly Occupied:

       1A    -20.602333     2A    -15.559521     3A    -11.313750
       4A    -11.270996     5A    -11.270905     6A    -11.264607
       7A    -11.253252     8A    -11.251040     9A    -11.246021
      10A    -11.244032    11A    -11.237576    12A    -11.234905
      13A    -11.234731    14A     -1.419578    15A     -1.257128
      16A     -1.175583    17A     -1.105367    18A     -1.039216
      19A     -1.030087    20A     -1.013117    21A     -0.882196
      22A     -0.872430    23A     -0.844081    24A     -0.812820
      25A     -0.749613    26A     -0.726169    27A     -0.685358
      28A     -0.661913    29A     -0.655713    30A     -0.635866
      31A     -0.614300    32A     -0.606610    33A     -0.603939
      34A     -0.592897    35A     -0.581281    36A     -0.544486
      37A     -0.534035    38A     -0.523518    39A     -0.502492
      40A     -0.495560    41A     -0.416493    42A     -0.396268
      43A     -0.356718    44A     -0.347480    45A     -0.309867

  @DF-RHF Final Energy:  -551.29321755226113

   => Energetics <=

    Nuclear Repulsion Energy =            697.8891388190172620
    One-Electron Energy =               -2132.4130136711028172
    Two-Electron Energy =                 883.2306572998244292
    DFT Exchange-Correlation Energy =       0.0000000000000000
    Empirical Dispersion Energy =           0.0000000000000000
    PCM Polarization Energy =               0.0000000000000000
    EFP Energy =                            0.0000000000000000
    Total Energy =                       -551.2932175522611260
  Basis Set: (AUG-CC-PVTZ AUX)
    Blend: AUG-CC-PVTZ-RI
    Molecular point group: c1
  Basis Set: AUG-CC-PVTZ
    Blend: AUG-CC-PVTZ
  Basis Set: (AUG-CC-PVTZ AUX)
    Blend: AUG-CC-PVTZ-JKFIT
  Basis Set: (AUG-CC-PVTZ AUX)
    Blend: AUG-CC-PVTZ-JKFIT
	 Reference Energy          =    -551.2932175522611260 [Eh]
	 Singles Energy            =      -0.0000000000000002 [Eh]
	 Same-Spin Energy          =      -0.6041202443975372 [Eh]
	 Opposite-Spin Energy      =      -1.8284441023742395 [Eh]
	 Correlation Energy        =      -2.4325643467717768 [Eh]
	 Total Energy              =    -553.7257818990328815 [Eh]

	 ================> DF-SCS-MP2 Energies <==================
	-----------------------------------------------------------
	 SCS Same-Spin Scale       =       0.3333333333333333 [-]
	 SCS Opposite-Spin Scale   =       1.2000000000000000 [-]
	 SCS Same-Spin Energy      =      -0.2013734147991791 [Eh]
	 SCS Opposite-Spin Energy  =      -2.1941329228490871 [Eh]
	 SCS Correlation Energy    =      -2.3955063376482664 [Eh]
	 SCS Total Energy          =    -553.6887238899093973 [Eh]
	-----------------------------------------------------------

  -Total Gradient:
     Atom            X                  Y                   Z
    ------   -----------------  -----------------  -----------------
       1        0.000007793665    -0.000009658794    -0.000006500445
       2       -0.000003165872    -0.000003753077     0.000027049664
       3       -0.000027970662    -0.000023673859     0.000025888512
       4        0.000021998345    -0.000006262435    -0.000035428203
       5       -0.000008702913     0.000008147984    -0.000003668583
       6       -0.000004111347    -0.000003245448     0.000008148217
       7       -0.000023500124     0.000049148355    -0.000021005276
       8       -0.000018213821    -0.000026280744     0.000050538515
       9        0.000010250601     0.000002097796    -0.000018436979
      10        0.000007335918    -0.000001764512     0.000007176609
      11        0.000026948688     0.000050014975     0.000025229104
      12        0.000018176397    -0.000009169939    -0.000011752564
      13       -0.000026698819    -0.000061836023    -0.000036060347
      14       -0.000001180345     0.000004163323    -0.000019907438
      15        0.000014405797    -0.000009784884     0.000009342685
      16       -0.000005153250     0.000006781428    -0.000011480379
      17       -0.000007044538    -0.000001611050     0.000014838680
      18       -0.000012281371    -0.000015124703    -0.000010778041
      19        0.000013988260     0.000012895698     0.000005392419
      20       -0.000005455911    -0.000024845312    -0.000002717287
      21        0.000016059145     0.000019365087    -0.000005603294
      22        0.000006522149     0.000044396127     0.000009734434

  **** Optimization is complete! (in 7 steps) ****
    Final optimized geometry and variables:
    Molecular point group: c1

    Geometry (in Angstrom), charge = 0, multiplicity = 1:

    C           -1.240157178339     0.768105784424    -0.564084106276
    C           -0.324977243952     0.057683803500     1.527719476326
    C           -2.313661693388     1.341249944247     0.098335063012
    C           -1.394911320056     0.623579549486     2.197145026546
    C            0.759254431996    -1.086289635827    -1.808659916899
    C            2.188040746279    -0.475353481641    -0.020592895433
    C            1.862863786658    -1.640221411368    -2.436953931046
    C            3.232450634292    -1.056911965575    -0.721082868785
    C           -0.226891262493     0.118792860327     0.137419261678
    C            0.906225670346    -0.480725617822    -0.563772344730
    C           -2.394458968364     1.269134359063     1.482468971427
    N            3.092059226222    -1.636235669181    -1.915770662184
    O           -3.422429243472     1.808419959534     2.194336751285
    H           -1.175785329641     0.855020173528    -1.638502702897
    H            0.432794317153    -0.464517927354     2.092699367199
    H           -3.084541553031     1.851839594566    -0.462245727265
    H           -1.475252667598     0.565264039818     3.271436389067
    H           -0.212081255048    -1.149846293806    -2.275563598137
    H            2.378210325357     0.000306231211     0.929698215057
    H            1.754069823960    -2.117271115773    -3.401071819757
    H            4.231342328374    -1.050719695612    -0.307409373938
    H           -4.041623628873     2.222624149632     1.585713848058

*** Psi4 exiting successfully. Buy a developer a beer!
