                               Psi4 1.1 release

  ==> Input File <==

--------------------------------------------------------------------------

memory 5 Gb

molecule phepyrOH_neutral {
  symmetry C1
  0 1
  C      1.885   -1.036   -0.112
  C      2.878   -1.652   2.002
  C      0.807   -0.463   0.561
  C      1.800   -1.079   2.676
  C      5.160   -1.460   -0.393
  C      3.999   -3.565   -0.460
  C      6.205   -2.076   -1.062
  C      5.096   -4.087   -1.126
  C      2.921   -1.631   0.608
  C      4.040   -2.225   -0.090
  C      0.764   -0.484   1.955
  N      6.202   -3.375   -1.437
  O      -0.288   0.076   2.612
  H      1.904   -1.012   -1.199
  H      3.678   -2.112   2.578
  H      0.003   -0.001   -0.006
  H      1.772   -1.098   3.762
  H      5.229   -0.412   -0.120
  H      3.142   -4.193   -0.241
  H      7.103   -1.523   -1.320
  H      5.114   -5.127   -1.436
  H      -0.175   -0.018   3.571
  units Angstrom
}

dih_string = "1 9 10 5 90"
set optking fixed_dihedral = $dih_string

optimize('MP2/aug-cc-PVTZ')
--------------------------------------------------------------------------

    Molecular point group: c1
  Charge       = 0
  Multiplicity = 1
  Basis Set: AUG-CC-PVTZ
    Blend: AUG-CC-PVTZ
  Basis Set: (AUG-CC-PVTZ AUX)
    Blend: AUG-CC-PVTZ-JKFIT
  @DF-RHF Final Energy:  -551.28414360575914
    Total Energy =                       -551.2841436057591409
  Basis Set: (AUG-CC-PVTZ AUX)
    Blend: AUG-CC-PVTZ-RI
    Molecular point group: c1
  Basis Set: AUG-CC-PVTZ
    Blend: AUG-CC-PVTZ
  Basis Set: (AUG-CC-PVTZ AUX)
    Blend: AUG-CC-PVTZ-JKFIT
  Basis Set: (AUG-CC-PVTZ AUX)
    Blend: AUG-CC-PVTZ-JKFIT
	 Reference Energy          =    -551.2841436057591409 [Eh]
	 Singles Energy            =      -0.0000000000000001 [Eh]
	 Same-Spin Energy          =      -0.6041172180575306 [Eh]
	 Opposite-Spin Energy      =      -1.8301515554894210 [Eh]
	 Correlation Energy        =      -2.4342687735469517 [Eh]
	 Total Energy              =    -553.7184123793060735 [Eh]
	 SCS Total Energy          =    -553.6816978783656396 [Eh]
  @DF-RHF Final Energy:  -551.28959115444491
    Total Energy =                       -551.2895911544449064
  @DF-RHF Final Energy:  -551.29057201350190
    Total Energy =                       -551.2905720135019010
  @DF-RHF Final Energy:  -551.29051948181836
    Total Energy =                       -551.2905194818183645
  Charge       = 0
  Multiplicity = 1
  Basis Set: AUG-CC-PVTZ
    Blend: AUG-CC-PVTZ
  Basis Set: (AUG-CC-PVTZ AUX)
    Blend: AUG-CC-PVTZ-JKFIT

    Orbital Energies (a.u.)
    -----------------------

    Doubly Occupied:

       1A    -20.598899     2A    -15.562842     3A    -11.309644
       4A    -11.272124     5A    -11.272107     6A    -11.262933
       7A    -11.250322     8A    -11.248276     9A    -11.243987
      10A    -11.241999    11A    -11.236624    12A    -11.236585
      13A    -11.235644    14A     -1.416016    15A     -1.259111
      16A     -1.172750    17A     -1.104469    18A     -1.033893
      19A     -1.032856    20A     -1.012294    21A     -0.878704
      22A     -0.858351    23A     -0.857857    24A     -0.811460
      25A     -0.745334    26A     -0.724815    27A     -0.677696
      28A     -0.668889    29A     -0.656070    30A     -0.637627
      31A     -0.615912    32A     -0.601004    33A     -0.600800
      34A     -0.596291    35A     -0.581353    36A     -0.539789
      37A     -0.528794    38A     -0.524084    39A     -0.504686
      40A     -0.489167    41A     -0.417340    42A     -0.378448
      43A     -0.356447    44A     -0.345675    45A     -0.323920

  @DF-RHF Final Energy:  -551.29048613134580

   => Energetics <=

    Nuclear Repulsion Energy =            696.7815378675938973
    One-Electron Energy =               -2130.2962777539141825
    Two-Electron Energy =                 882.2242537549744839
    DFT Exchange-Correlation Energy =       0.0000000000000000
    Empirical Dispersion Energy =           0.0000000000000000
    PCM Polarization Energy =               0.0000000000000000
    EFP Energy =                            0.0000000000000000
    Total Energy =                       -551.2904861313458014
  Basis Set: (AUG-CC-PVTZ AUX)
    Blend: AUG-CC-PVTZ-RI
    Molecular point group: c1
  Basis Set: AUG-CC-PVTZ
    Blend: AUG-CC-PVTZ
  Basis Set: (AUG-CC-PVTZ AUX)
    Blend: AUG-CC-PVTZ-JKFIT
  Basis Set: (AUG-CC-PVTZ AUX)
    Blend: AUG-CC-PVTZ-JKFIT
	 Reference Energy          =    -551.2904861313458014 [Eh]
	 Singles Energy            =      -0.0000000000000003 [Eh]
	 Same-Spin Energy          =      -0.6031994868985070 [Eh]
	 Opposite-Spin Energy      =      -1.8278356976970254 [Eh]
	 Correlation Energy        =      -2.4310351845955327 [Eh]
	 Total Energy              =    -553.7215213159413452 [Eh]

	 ================> DF-SCS-MP2 Energies <==================
	-----------------------------------------------------------
	 SCS Same-Spin Scale       =       0.3333333333333333 [-]
	 SCS Opposite-Spin Scale   =       1.2000000000000000 [-]
	 SCS Same-Spin Energy      =      -0.2010664956328357 [Eh]
	 SCS Opposite-Spin Energy  =      -2.1934028372364303 [Eh]
	 SCS Correlation Energy    =      -2.3944693328692663 [Eh]
	 SCS Total Energy          =    -553.6849554642150224 [Eh]
	-----------------------------------------------------------

  -Total Gradient:
     Atom            X                  Y                   Z
    ------   -----------------  -----------------  -----------------
       1        0.000010078279    -0.000009772656     0.000026159461
       2       -0.000034255994     0.000012039746     0.000044685947
       3       -0.000011540261    -0.000000314068    -0.000016698000
       4        0.000025050071    -0.000017593860    -0.000027810524
       5       -0.000004626882     0.000027167660    -0.000058636062
       6       -0.000006967732    -0.000018138131    -0.000024429915
       7        0.000110551914    -0.000141199250     0.000172216564
       8        0.000086037843     0.000019240181     0.000005756060
       9        0.000071833471    -0.000037543114    -0.000078546627
      10       -0.000087421831     0.000048163802     0.000066344286
      11       -0.000010810626     0.000034390295     0.000049583117
      12       -0.000062337180     0.000041331380    -0.000090537236
      13        0.000007638657    -0.000012583403    -0.000056966083
      14       -0.000009706947     0.000008031036    -0.000036153389
      15        0.000029542918    -0.000016638530     0.000013422340
      16       -0.000008781706     0.000006036122    -0.000022219001
      17       -0.000007707784     0.000003137085     0.000014199015
      18       -0.000018184384     0.000041178487    -0.000001333850
      19       -0.000038356222    -0.000010920081     0.000010898321
      20       -0.000030020641     0.000035414544    -0.000051020190
      21       -0.000014092873    -0.000005924329     0.000010926663
      22        0.000004077901    -0.000005502908     0.000050159098

  **** Optimization is complete! (in 5 steps) ****
    Final optimized geometry and variables:
    Molecular point group: c1

    Geometry (in Angstrom), charge = 0, multiplicity = 1:

    C           -1.271229378346     0.718868136440    -0.555416956847
    C           -0.278599333049     0.104607891258     1.534502527173
    C           -2.342376553145     1.288399096521     0.112634525663
    C           -1.348223306205     0.673029695717     2.210645331852
    C            2.039712570109     0.258879903430    -0.887501520311
    C            0.893689284992    -1.818012457490    -0.954717185586
    C            3.086052228155    -0.353013877201    -1.561565263849
    C            1.987423426575    -2.343438876410    -1.626483382975
    C           -0.226408650719     0.120209272860     0.144701667748
    C            0.908248688967    -0.482802757332    -0.569208516813
    C           -2.382085010960     1.266076125917     1.499423635539
    N            3.076235303485    -1.634920393000    -1.933763259021
    O           -3.460613675523     1.841561668830     2.101893747388
    H           -1.243267400150     0.737923691135    -1.634900102087
    H            0.523593662260    -0.355704295687     2.092218009093
    H           -3.153596231691     1.753049368449    -0.426113561855
    H           -1.376895056664     0.654271397921     3.291559716332
    H            2.101393448976     1.301150216579    -0.611972079001
    H            0.038160874812    -2.438347543047    -0.732666966129
    H            3.972049762137     0.211542634276    -1.816478010831
    H            1.990251232253    -3.380278722260    -1.932491120151
    H           -3.366638739824     1.759157366663     3.055631269759

*** Psi4 exiting successfully. Buy a developer a beer!
