                               Psi4 1.1 release

  ==> Input File <==

--------------------------------------------------------------------------

memory 5 Gb

molecule phepyrOH_cation {
  symmetry C1
  1 1
  C      1.885   -1.036   -0.112
  C      2.878   -1.652   2.002
  C      0.807   -0.463   0.561
  C      1.800   -1.079   2.676
  C      5.207   -2.535   0.601
  C      3.950   -2.488   -1.454
  C      6.264   -3.104   -0.095
  C      5.040   -3.058   -2.098
  C      2.921   -1.631   0.608
  C      4.040   -2.225   -0.090
  C      0.764   -0.484   1.955
  N      6.152   -3.346   -1.408
  O      -0.288   0.076   2.612
  H      1.904   -1.012   -1.199
  H      3.678   -2.112   2.578
  H      0.003   -0.001   -0.006
  H      1.772   -1.098   3.762
  H      5.304   -2.342   1.665
  H      3.052   -2.256   -2.018
  H      7.207   -3.378   0.359
  H      5.060   -3.296   -3.152
  H      6.941   -3.764   -1.900
  H      -0.175   -0.018   3.571
  units Angstrom
}

dih_string = "1 9 10 5 165"
set optking fixed_dihedral = $dih_string

optimize('MP2/aug-cc-PVTZ')
--------------------------------------------------------------------------

    Molecular point group: c1
  Charge       = 1
  Multiplicity = 1
  Basis Set: AUG-CC-PVTZ
    Blend: AUG-CC-PVTZ
  Basis Set: (AUG-CC-PVTZ AUX)
    Blend: AUG-CC-PVTZ-JKFIT
  @DF-RHF Final Energy:  -551.67353064978874
    Total Energy =                       -551.6735306497887450
  Basis Set: (AUG-CC-PVTZ AUX)
    Blend: AUG-CC-PVTZ-RI
    Molecular point group: c1
  Basis Set: AUG-CC-PVTZ
    Blend: AUG-CC-PVTZ
  Basis Set: (AUG-CC-PVTZ AUX)
    Blend: AUG-CC-PVTZ-JKFIT
  Basis Set: (AUG-CC-PVTZ AUX)
    Blend: AUG-CC-PVTZ-JKFIT
	 Reference Energy          =    -551.6735306497887450 [Eh]
	 Singles Energy            =      -0.0000000000000002 [Eh]
	 Same-Spin Energy          =      -0.5969477194254267 [Eh]
	 Opposite-Spin Energy      =      -1.8265219580374521 [Eh]
	 Correlation Energy        =      -2.4234696774628786 [Eh]
	 Total Energy              =    -554.0970003272516351 [Eh]
	 SCS Total Energy          =    -554.0643395725754772 [Eh]
  @DF-RHF Final Energy:  -551.68034649373340
    Total Energy =                       -551.6803464937333956
  @DF-RHF Final Energy:  -551.68258021328688
    Total Energy =                       -551.6825802132868830
  @DF-RHF Final Energy:  -551.68263185951560
    Total Energy =                       -551.6826318595155954
  @DF-RHF Final Energy:  -551.68264276735181
    Total Energy =                       -551.6826427673518083
  Charge       = 1
  Multiplicity = 1
  Basis Set: AUG-CC-PVTZ
    Blend: AUG-CC-PVTZ
  Basis Set: (AUG-CC-PVTZ AUX)
    Blend: AUG-CC-PVTZ-JKFIT

    Orbital Energies (a.u.)
    -----------------------

    Doubly Occupied:

       1A    -20.712182     2A    -15.823335     3A    -11.476553
       4A    -11.476440     5A    -11.449767     6A    -11.439124
       7A    -11.406854     8A    -11.406502     9A    -11.382698
      10A    -11.378870    11A    -11.374138    12A    -11.357138
      13A    -11.350345    14A     -1.535592    15A     -1.503297
      16A     -1.317928    17A     -1.267040    18A     -1.234741
      19A     -1.158732    20A     -1.157929    21A     -1.060253
      22A     -1.057863    23A     -0.981027    24A     -0.960210
      25A     -0.955661    26A     -0.875473    27A     -0.861741
      28A     -0.855166    29A     -0.820217    30A     -0.798747
      31A     -0.781001    32A     -0.769692    33A     -0.760419
      34A     -0.733749    35A     -0.722040    36A     -0.715606
      37A     -0.701992    38A     -0.687043    39A     -0.664860
      40A     -0.643874    41A     -0.619933    42A     -0.568619
      43A     -0.537307    44A     -0.476057    45A     -0.436772

  @DF-RHF Final Energy:  -551.68264466179835

   => Energetics <=

    Nuclear Repulsion Energy =            713.3226777166082684
    One-Electron Energy =               -2149.5015851486864449
    Two-Electron Energy =                 884.4962627702798272
    DFT Exchange-Correlation Energy =       0.0000000000000000
    Empirical Dispersion Energy =           0.0000000000000000
    PCM Polarization Energy =               0.0000000000000000
    EFP Energy =                            0.0000000000000000
    Total Energy =                       -551.6826446617983493
  Basis Set: (AUG-CC-PVTZ AUX)
    Blend: AUG-CC-PVTZ-RI
    Molecular point group: c1
  Basis Set: AUG-CC-PVTZ
    Blend: AUG-CC-PVTZ
  Basis Set: (AUG-CC-PVTZ AUX)
    Blend: AUG-CC-PVTZ-JKFIT
  Basis Set: (AUG-CC-PVTZ AUX)
    Blend: AUG-CC-PVTZ-JKFIT
	 Reference Energy          =    -551.6826446617983493 [Eh]
	 Singles Energy            =      -0.0000000000000001 [Eh]
	 Same-Spin Energy          =      -0.5956561451077658 [Eh]
	 Opposite-Spin Energy      =      -1.8237042906964753 [Eh]
	 Correlation Energy        =      -2.4193604358042409 [Eh]
	 Total Energy              =    -554.1020050976026141 [Eh]

	 ================> DF-SCS-MP2 Energies <==================
	-----------------------------------------------------------
	 SCS Same-Spin Scale       =       0.3333333333333333 [-]
	 SCS Opposite-Spin Scale   =       1.2000000000000000 [-]
	 SCS Same-Spin Energy      =      -0.1985520483692552 [Eh]
	 SCS Opposite-Spin Energy  =      -2.1884451488357701 [Eh]
	 SCS Correlation Energy    =      -2.3869971972050252 [Eh]
	 SCS Total Energy          =    -554.0696418590033545 [Eh]
	-----------------------------------------------------------

  -Total Gradient:
     Atom            X                  Y                   Z
    ------   -----------------  -----------------  -----------------
       1       -0.000475211296    -0.000950584052    -0.000009848178
       2       -0.000004909579     0.000000122471     0.000014456933
       3       -0.000005675688     0.000034705440     0.000014535106
       4        0.000021000222    -0.000023031992    -0.000007320387
       5       -0.000348068269    -0.000939102621     0.000198327309
       6        0.000010848769    -0.000008456199     0.000011018316
       7        0.000000245199     0.000002498199     0.000018265637
       8       -0.000013202337     0.000004939653    -0.000008051538
       9        0.000578903580     0.000880828698     0.000109410936
      10        0.000266165320     0.000989628032    -0.000311929210
      11       -0.000032503891     0.000013100288    -0.000007574213
      12        0.000003788195    -0.000003533402    -0.000001610553
      13        0.000017507390    -0.000009261477     0.000002486419
      14       -0.000007350218     0.000004446547    -0.000003843253
      15       -0.000012374349     0.000000899263     0.000002407223
      16        0.000010033567    -0.000011737953    -0.000009958113
      17        0.000000774933     0.000005706152    -0.000003920583
      18        0.000002925216    -0.000005572919    -0.000008017009
      19       -0.000002311768     0.000006411040    -0.000004994880
      20       -0.000004202698    -0.000000363008     0.000002616984
      21       -0.000003181331     0.000003977346     0.000004445327
      22       -0.000001932574     0.000002855575     0.000001439703
      23       -0.000001268415     0.000001524917    -0.000002341966

  **** Optimization is complete! (in 6 steps) ****
    Final optimized geometry and variables:
    Molecular point group: c1

    Geometry (in Angstrom), charge = 1, multiplicity = 1:

    C           -1.283396967212     0.746993216338    -0.545119742922
    C           -0.295521035522     0.116660596552     1.550896835103
    C           -2.349407943980     1.308394519716     0.120498500177
    C           -1.366083404122     0.667666965388     2.223267058221
    C            2.082660250178    -0.781486771225     0.101289651526
    C            0.818605794826    -0.753236295631    -1.918830898991
    C            3.125553452679    -1.355476691968    -0.578236034590
    C            1.878826824557    -1.327118620493    -2.571211070819
    C           -0.229325480858     0.143394214330     0.153502781929
    C            0.882824637949    -0.453867994872    -0.549051413696
    C           -2.400619614994     1.271994594442     1.512411866321
    N            3.001231978822    -1.613083685247    -1.890818809060
    O           -3.471014875856     1.833619651580     2.094641430466
    H           -1.263827331406     0.819297044145    -1.620894744268
    H            0.471676195234    -0.369743623704     2.132091187316
    H           -3.152447953396     1.787476951750    -0.417012308201
    H           -1.404624754584     0.623749135961     3.302004146973
    H            2.227129040385    -0.566062788763     1.146090800293
    H           -0.074026419561    -0.562682092641    -2.489494945882
    H            4.064304158331    -1.613516648619    -0.117028520176
    H            1.866210380849    -1.576981919401    -3.619052642383
    H            3.777153183531    -2.036614046641    -2.382276816988
    H           -3.413077205406     1.761173503828     3.054142810476

*** Psi4 exiting successfully. Buy a developer a beer!
