                              Psi4 1.0.0 Driver

  ==> Input File <==

--------------------------------------------------------------------------

memory 1000 mb

molecule butane {
  symmetry C1
  0 1
  H      1.604   0.760   -8.260
  H      1.745   2.388   -8.880
  H      2.043   1.024   -9.930
  C      2.142   1.395   -8.932
  H      4.169   2.051   -9.210
  H      3.731   1.788   -7.539
  C      3.631   1.416   -8.537
  H      3.434   -0.688   -8.921
  H      5.006   -0.038   -9.318
  C      4.203   -0.012   -8.612
  H      5.123   -1.421   -7.278
  H      3.924   -0.404   -6.519
  H      5.496   0.246   -6.916
  C      4.726   -0.430   -7.226
  units Angstrom
}

dih_string = "4 7 10 14 240"
set optking fixed_dihedral = $dih_string

optimize('MP2/6-31G(d)')
--------------------------------------------------------------------------

    Molecular point group: c1
  Charge       = 0
  Multiplicity = 1
  Basis Set: 6-31G(D)
  Basis Set:
  @DF-RHF Final Energy:  -157.28783572283746
    Total Energy =                       -157.2878357228372863
  Basis Set:
    Molecular point group: c1
  Basis Set: 6-31G(D)
  Basis Set:
  Basis Set:
	 Reference Energy          =    -157.2878357228374568 [Eh]
	 Singles Energy            =      -0.0000000000000000 [Eh]
	 Same-Spin Energy          =      -0.1244268521493322 [Eh]
	 Opposite-Spin Energy      =      -0.4204139745379028 [Eh]
	 Correlation Energy        =      -0.5448408266872350 [Eh]
	 Total Energy              =    -157.8326765495247059 [Eh]
	 SCS Total Energy          =    -157.8338081096660517 [Eh]
  Basis Set: 6-31G(D)
  Basis Set:
  @DF-RHF Final Energy:  -157.29086167052554
    Total Energy =                       -157.2908616705255156
  Basis Set:
  Basis Set: 6-31G(D)
  Basis Set:
  @DF-RHF Final Energy:  -157.29175201209199
    Total Energy =                       -157.2917520120920187
  @DF-RHF Final Energy:  -157.29203448300430
    Total Energy =                       -157.2920344830043859
  @DF-RHF Final Energy:  -157.29202071806671
    Total Energy =                       -157.2920207180665670
	 Singles Energy            =      -0.0000000000000000 [Eh]
	 Same-Spin Energy          =      -0.1242749296040393 [Eh]
	 Opposite-Spin Energy      =      -0.4224323162507606 [Eh]
	 Correlation Energy        =      -0.5467072458547999 [Eh]
	 Total Energy              =    -157.8387279639215137 [Eh]
	 SCS Total Energy          =    -157.8403644741023015 [Eh]
  Charge       = 0
  Multiplicity = 1
  Basis Set: 6-31G(D)
  Basis Set:

    Orbital Energies (a.u.)
    -----------------------

    Doubly Occupied:

       1A    -11.215466     2A    -11.214909     3A    -11.210531
       4A    -11.210524     5A     -1.067637     6A     -0.978932
       7A     -0.860290     8A     -0.785727     9A     -0.628748
      10A     -0.598346    11A     -0.579589    12A     -0.550564
      13A     -0.508244    14A     -0.508192    15A     -0.465847
      16A     -0.454100    17A     -0.453776

  @DF-RHF Final Energy:  -157.29203895101261

   => Energetics <=

    Nuclear Repulsion Energy =            131.0780343692431416
    One-Electron Energy =                -470.1573046882107292
    Two-Electron Energy =                 181.7872313679550018
    DFT Exchange-Correlation Energy =       0.0000000000000000
    Empirical Dispersion Energy =           0.0000000000000000
    PCM Polarization Energy =               0.0000000000000000
    EFP Energy =                            0.0000000000000000
    Total Energy =                       -157.2920389510125858
  Basis Set:
    Molecular point group: c1
  Basis Set: 6-31G(D)
  Basis Set:
  Basis Set:
	 Reference Energy          =    -157.2920389510126142 [Eh]
	 Singles Energy            =      -0.0000000000000000 [Eh]
	 Same-Spin Energy          =      -0.1242727415277226 [Eh]
	 Opposite-Spin Energy      =      -0.4224170591251055 [Eh]
	 Correlation Energy        =      -0.5466898006528280 [Eh]
	 Total Energy              =    -157.8387287516654283 [Eh]

	 ================> DF-SCS-MP2 Energies <==================
	-----------------------------------------------------------
	 SCS Same-Spin Scale       =       0.3333333333333333 [-]
	 SCS Opposite-Spin Scale   =       1.2000000000000000 [-]
	 SCS Same-Spin Energy      =      -0.0414242471759075 [Eh]
	 SCS Opposite-Spin Energy  =      -0.5069004709501266 [Eh]
	 SCS Correlation Energy    =      -0.5483247181260341 [Eh]
	 SCS Total Energy          =    -157.8403636691386396 [Eh]
	-----------------------------------------------------------

  -Total Gradient:
     Atom            X                  Y                   Z
    ------   -----------------  -----------------  -----------------
       1        0.000003109588     0.000006192418     0.000002366119
       2       -0.000011040576     0.000001797261    -0.000007248738
       3        0.000001007579    -0.000006590326     0.000003131192
       4        0.000024646012     0.000001484368     0.000089197582
       5       -0.000029058070     0.000007426672     0.000001003354
       6        0.000016331425     0.000008344853    -0.000023658544
       7       -0.000043039207     0.000042612306    -0.000075241522
       8        0.000023019177     0.000009535356    -0.000016601759
       9        0.000005365555    -0.000018088000     0.000023417495
      10        0.000089673450    -0.000021676354     0.000026842547
      11        0.000008693068    -0.000003284759     0.000009568476
      12       -0.000000278548    -0.000005250371    -0.000006179966
      13       -0.000005884876     0.000004278368     0.000001339223
      14       -0.000082544578    -0.000026781793    -0.000027935459

  **** Optimization is complete! (in 6 steps) ****
    Final optimized geometry and variables:
    Molecular point group: c1

    Geometry (in Angstrom), charge = 0, multiplicity = 1:

    H           -2.125976964196     0.180358007092     0.028816384752
    H           -1.968127017038     1.823085240973    -0.608534486690
    H           -1.667324625310     0.432021963761    -1.658865256306
    C           -1.541315930261     0.816534158550    -0.642570591666
    H            0.486843408717     1.482798729247    -0.906627489463
    H            0.026226704224     1.244926105393     0.763342428613
    C           -0.069670346309     0.814857520842    -0.240545195190
    H           -0.196703741857    -1.322383034975    -0.588079122284
    H            1.362286245744    -0.642672847258    -0.994398574762
    C            0.553772919541    -0.594913367394    -0.257144575853
    H            1.513767276859    -2.029517510407     1.075669359164
    H            0.293578156694    -1.012913371669     1.854987931339
    H            1.874410502864    -0.337902872118     1.445957605160
    C            1.090893194369    -1.021176203033     1.105635796380

*** Psi4 exiting successfully. Buy a developer a beer!
