                               Psi4 1.1 release

  ==> Input File <==

--------------------------------------------------------------------------

memory 5 Gb

molecule phepyrF {
  symmetry C1
  0 1
  C      1.885   -1.036   -0.112
  C      0.807   -0.463   0.561
  C      2.921   -1.631   0.608
  C      0.764   -0.484   1.955
  C      4.861   -3.104   2.099
  C      4.090   -2.030   4.108
  C      5.875   -3.670   2.855
  C      5.138   -2.644   4.774
  C      2.878   -1.652   2.002
  C      3.955   -2.270   2.745
  C      1.800   -1.079   2.676
  N      6.037   -3.461   4.180
  F      1.744   -1.089   4.016
  H      1.918   -1.020   -1.198
  H      0.000   -0.000   -0.000
  H      3.755   -2.073   0.068
  H      -0.076   -0.038   2.480
  H      4.789   -3.314   1.036
  H      3.402   -1.386   4.646
  H      6.608   -4.326   2.397
  H      5.286   -2.491   5.838
  units Angstrom
}

dih_string = "3 9 10 5 345"
set optking fixed_dihedral = $dih_string

optimize('MP2/aug-cc-PVTZ')
--------------------------------------------------------------------------

    Molecular point group: c1
  Charge       = 0
  Multiplicity = 1
  Basis Set: AUG-CC-PVTZ
    Blend: AUG-CC-PVTZ
  Basis Set: (AUG-CC-PVTZ AUX)
    Blend: AUG-CC-PVTZ-JKFIT
  @DF-RHF Final Energy:  -575.27077736626961
    Total Energy =                       -575.2707773662696127
  Basis Set: (AUG-CC-PVTZ AUX)
    Blend: AUG-CC-PVTZ-RI
    Molecular point group: c1
  Basis Set: AUG-CC-PVTZ
    Blend: AUG-CC-PVTZ
  Basis Set: (AUG-CC-PVTZ AUX)
    Blend: AUG-CC-PVTZ-JKFIT
  Basis Set: (AUG-CC-PVTZ AUX)
    Blend: AUG-CC-PVTZ-JKFIT
	 Reference Energy          =    -575.2707773662696127 [Eh]
	 Singles Energy            =      -0.0000000000000000 [Eh]
	 Same-Spin Energy          =      -0.6099079801981742 [Eh]
	 Opposite-Spin Energy      =      -1.8346581358429408 [Eh]
	 Correlation Energy        =      -2.4445661160411150 [Eh]
	 Total Energy              =    -577.7153434823106863 [Eh]
	 SCS Total Energy          =    -577.6756697893472392 [Eh]
  @DF-RHF Final Energy:  -575.27888608632861
    Total Energy =                       -575.2788860863286118
  @DF-RHF Final Energy:  -575.28303445948973
    Total Energy =                       -575.2830344594897269
  @DF-RHF Final Energy:  -575.28493575682489
    Total Energy =                       -575.2849357568248934
  @DF-RHF Final Energy:  -575.28594378029925
    Total Energy =                       -575.2859437802992488
  @DF-RHF Final Energy:  -575.28651474946309
    Total Energy =                       -575.2865147494630946
  @DF-RHF Final Energy:  -575.28681746630764
    Total Energy =                       -575.2868174663076388
  @DF-RHF Final Energy:  -575.28694217179509
    Total Energy =                       -575.2869421717950900
  @DF-RHF Final Energy:  -575.28695891552604
    Total Energy =                       -575.2869589155260428
  Charge       = 0
  Multiplicity = 1
  Basis Set: AUG-CC-PVTZ
    Blend: AUG-CC-PVTZ
  Basis Set: (AUG-CC-PVTZ AUX)
    Blend: AUG-CC-PVTZ-JKFIT

    Orbital Energies (a.u.)
    -----------------------

    Doubly Occupied:

       1A    -26.320643     2A    -15.563052     3A    -11.341575
       4A    -11.273086     5A    -11.272066     6A    -11.270672
       7A    -11.267246     8A    -11.258602     9A    -11.257929
      10A    -11.251643    11A    -11.248294    12A    -11.239776
      13A    -11.235803    14A     -1.640405    15A     -1.259940
      16A     -1.187265    17A     -1.115705    18A     -1.040552
      19A     -1.033330    20A     -1.031035    21A     -0.895232
      22A     -0.876229    23A     -0.843452    24A     -0.830391
      25A     -0.758472    26A     -0.723327    27A     -0.719658
      28A     -0.707263    29A     -0.674575    30A     -0.662912
      31A     -0.654205    32A     -0.624181    33A     -0.610160
      34A     -0.598593    35A     -0.591007    36A     -0.553139
      37A     -0.543088    38A     -0.529010    39A     -0.520782
      40A     -0.505126    41A     -0.419736    42A     -0.417211
      43A     -0.355604    44A     -0.347845    45A     -0.328244

  @DF-RHF Final Energy:  -575.28697122269216

   => Energetics <=

    Nuclear Repulsion Energy =            714.7337751472086893
    One-Electron Energy =               -2201.2453752884030109
    Two-Electron Energy =                 911.2246289185021624
    DFT Exchange-Correlation Energy =       0.0000000000000000
    Empirical Dispersion Energy =           0.0000000000000000
    PCM Polarization Energy =               0.0000000000000000
    EFP Energy =                            0.0000000000000000
    Total Energy =                       -575.2869712226921592
  Basis Set: (AUG-CC-PVTZ AUX)
    Blend: AUG-CC-PVTZ-RI
    Molecular point group: c1
  Basis Set: AUG-CC-PVTZ
    Blend: AUG-CC-PVTZ
  Basis Set: (AUG-CC-PVTZ AUX)
    Blend: AUG-CC-PVTZ-JKFIT
  Basis Set: (AUG-CC-PVTZ AUX)
    Blend: AUG-CC-PVTZ-JKFIT
	 Reference Energy          =    -575.2869712226921592 [Eh]
	 Singles Energy            =      -0.0000000000000001 [Eh]
	 Same-Spin Energy          =      -0.6078189997467985 [Eh]
	 Opposite-Spin Energy      =      -1.8309327507577426 [Eh]
	 Correlation Energy        =      -2.4387517505045411 [Eh]
	 Total Energy              =    -577.7257229731967527 [Eh]

	 ================> DF-SCS-MP2 Energies <==================
	-----------------------------------------------------------
	 SCS Same-Spin Scale       =       0.3333333333333333 [-]
	 SCS Opposite-Spin Scale   =       1.2000000000000000 [-]
	 SCS Same-Spin Energy      =      -0.2026063332489328 [Eh]
	 SCS Opposite-Spin Energy  =      -2.1971193009092911 [Eh]
	 SCS Correlation Energy    =      -2.3997256341582238 [Eh]
	 SCS Total Energy          =    -577.6866968568504035 [Eh]
	-----------------------------------------------------------

  -Total Gradient:
     Atom            X                  Y                   Z
    ------   -----------------  -----------------  -----------------
       1        0.000008312250     0.000006550025     0.000003747145
       2       -0.000010767651    -0.000010281285     0.000008834690
       3       -0.001934281604    -0.003420219064    -0.000291008227
       4       -0.000009541402    -0.000002133266    -0.000014155324
       5        0.002324586185     0.003118802726    -0.000641851044
       6       -0.000001505172     0.000008000659    -0.000005243192
       7        0.000003932301     0.000011863474    -0.000011537019
       8       -0.000004849838    -0.000014061293    -0.000001384669
       9        0.004001791434     0.006588991720     0.000144681347
      10       -0.004407923991    -0.006306913208     0.000809863392
      11        0.000031605247     0.000032028185    -0.000030116775
      12       -0.000000125017    -0.000000618912     0.000007241752
      13       -0.000007723303    -0.000012482924     0.000021143159
      14        0.000002611857    -0.000002078554    -0.000003395772
      15        0.000000342926     0.000002291202    -0.000003411274
      16        0.000001654493     0.000000413860    -0.000007115025
      17        0.000001253214    -0.000001233824     0.000009844401
      18        0.000004100871    -0.000003468476    -0.000000276284
      19       -0.000007389725     0.000003086823     0.000000936360
      20        0.000000235234    -0.000003218990     0.000002829652
      21        0.000003681691     0.000004681119     0.000000372709

  **** Optimization is complete! (in 10 steps) ****
    Final optimized geometry and variables:
    Molecular point group: c1

    Geometry (in Angstrom), charge = 0, multiplicity = 1:

    C           -1.409134397587     0.971024819052    -2.596320169162
    C           -2.515462151658     1.469445549359    -1.923288994549
    C           -0.376129449864     0.382639802268    -1.888276451975
    C           -2.573280076718     1.363210345528    -0.544259143036
    C            1.604105412345    -1.218141899181    -0.471626964235
    C            0.976733957669    -0.203759527857     1.570497067015
    C            2.671232272738    -1.794833019848     0.194912481610
    C            2.074563075349    -0.820462115132     2.150037085687
    C           -0.388187875923     0.273163805621    -0.493035832403
    C            0.705500049779    -0.401279290286     0.215817000548
    C           -1.528625872321     0.770549261967     0.135807363561
    N            2.923870674194    -1.611586793737     1.492796020225
    F           -1.668391949215     0.654884756271     1.471596983617
    H           -1.345774456973     1.044818819959    -3.670404900041
    H           -3.326942007801     1.932713902272    -2.462246876794
    H            0.487195724975     0.031446044383    -2.429386314111
    H           -3.418562894450     1.722267175455     0.020196721990
    H            1.465607623364    -1.444701508757    -1.516272740790
    H            0.358618667720     0.435131904752     2.174664659622
    H            3.356946080419    -2.435700160750    -0.341513556015
    H            2.281841369201    -0.664130445046     3.199400851228

*** Psi4 exiting successfully. Buy a developer a beer!
