                              Psi4 1.0.0 Driver

  ==> Input File <==

--------------------------------------------------------------------------

memory 1000 mb

molecule butane {
  symmetry C1
  0 1
  H      1.604   0.760   -8.260
  H      1.745   2.388   -8.880
  H      2.043   1.024   -9.930
  C      2.142   1.395   -8.932
  H      4.169   2.051   -9.210
  H      3.731   1.788   -7.539
  C      3.631   1.416   -8.537
  H      5.269   0.035   -8.685
  H      3.929   -0.553   -7.731
  C      4.203   -0.012   -8.612
  H      4.033   -1.721   -9.902
  H      3.908   -0.189   -10.732
  H      2.568   -0.776   -9.778
  C      3.635   -0.729   -9.850
  units Angstrom
}

dih_string = "4 7 10 14 40"
set optking fixed_dihedral = $dih_string

optimize('MP2/6-31G(d)')
--------------------------------------------------------------------------

    Molecular point group: c1
  Charge       = 0
  Multiplicity = 1
  Basis Set: 6-31G(D)
  Basis Set:
  @DF-RHF Final Energy:  -157.28441129080178
    Total Energy =                       -157.2844112908019554
  Basis Set:
    Molecular point group: c1
  Basis Set: 6-31G(D)
  Basis Set:
  Basis Set:
	 Reference Energy          =    -157.2844112908017848 [Eh]
	 Singles Energy            =      -0.0000000000000000 [Eh]
	 Same-Spin Energy          =      -0.1253835699110887 [Eh]
	 Opposite-Spin Energy      =      -0.4213423314636932 [Eh]
	 Correlation Energy        =      -0.5467259013747819 [Eh]
	 Total Energy              =    -157.8311371921765556 [Eh]
	 SCS Total Energy          =    -157.8318166118619104 [Eh]
  Basis Set: 6-31G(D)
  Basis Set:
  @DF-RHF Final Energy:  -157.29091904235824
    Total Energy =                       -157.2909190423583823
  Basis Set:
  Basis Set: 6-31G(D)
  Basis Set:
  @DF-RHF Final Energy:  -157.29263420298670
    Total Energy =                       -157.2926342029868749
  @DF-RHF Final Energy:  -157.29362326066050
    Total Energy =                       -157.2936232606604392
  @DF-RHF Final Energy:  -157.29396866551753
    Total Energy =                       -157.2939686655175535
  @DF-RHF Final Energy:  -157.29403406132818
    Total Energy =                       -157.2940340613280341
  @DF-RHF Final Energy:  -157.29407931777820
    Total Energy =                       -157.2940793177780279
  @DF-RHF Final Energy:  -157.29408206042510
    Total Energy =                       -157.2940820604250689
  @DF-RHF Final Energy:  -157.29407058902686
    Total Energy =                       -157.2940705890267168
  @DF-RHF Final Energy:  -157.29406980336586
    Total Energy =                       -157.2940698033660567
	 Singles Energy            =      -0.0000000000000000 [Eh]
	 Same-Spin Energy          =      -0.1246726787858987 [Eh]
	 Opposite-Spin Energy      =      -0.4226499430691894 [Eh]
	 Correlation Energy        =      -0.5473226218550881 [Eh]
	 Total Energy              =    -157.8413924252209597 [Eh]
	 SCS Total Energy          =    -157.8428072946441887 [Eh]
  Charge       = 0
  Multiplicity = 1
  Basis Set: 6-31G(D)
  Basis Set:

    Orbital Energies (a.u.)
    -----------------------

    Doubly Occupied:

       1A    -11.216123     2A    -11.215544     3A    -11.209691
       4A    -11.209684     5A     -1.069514     6A     -0.973774
       7A     -0.875784     8A     -0.770011     9A     -0.628825
      10A     -0.617199    11A     -0.568972    12A     -0.536742
      13A     -0.527370    14A     -0.504751    15A     -0.462414
      16A     -0.458242    17A     -0.450784

  @DF-RHF Final Energy:  -157.29406690591327

   => Energetics <=

    Nuclear Repulsion Energy =            133.0722534179668060
    One-Electron Energy =                -474.1417969485398771
    Two-Electron Energy =                 183.7754766246599445
    DFT Exchange-Correlation Energy =       0.0000000000000000
    Empirical Dispersion Energy =           0.0000000000000000
    PCM Polarization Energy =               0.0000000000000000
    EFP Energy =                            0.0000000000000000
    Total Energy =                       -157.2940669059131267
  Basis Set:
    Molecular point group: c1
  Basis Set: 6-31G(D)
  Basis Set:
  Basis Set:
	 Reference Energy          =    -157.2940669059132688 [Eh]
	 Singles Energy            =      -0.0000000000000000 [Eh]
	 Same-Spin Energy          =      -0.1246737310686941 [Eh]
	 Opposite-Spin Energy      =      -0.4226477717808247 [Eh]
	 Correlation Energy        =      -0.5473215028495189 [Eh]
	 Total Energy              =    -157.8413884087627821 [Eh]

	 ================> DF-SCS-MP2 Energies <==================
	-----------------------------------------------------------
	 SCS Same-Spin Scale       =       0.3333333333333333 [-]
	 SCS Opposite-Spin Scale   =       1.2000000000000000 [-]
	 SCS Same-Spin Energy      =      -0.0415579103562314 [Eh]
	 SCS Opposite-Spin Energy  =      -0.5071773261369896 [Eh]
	 SCS Correlation Energy    =      -0.5487352364932210 [Eh]
	 SCS Total Energy          =    -157.8428021424064980 [Eh]
	-----------------------------------------------------------

  -Total Gradient:
     Atom            X                  Y                   Z
    ------   -----------------  -----------------  -----------------
       1        0.000002024667    -0.000002876403    -0.000000761250
       2        0.000003108585    -0.000003423203     0.000002415288
       3        0.000002710315     0.000002701693    -0.000000518818
       4        0.000940984007     0.000707718208    -0.003674326927
       5       -0.000014619351    -0.000000260654    -0.000014157657
       6        0.000016176480     0.000006042885    -0.000009004726
       7       -0.002552103224    -0.001606950887     0.006067317341
       8       -0.000003638578    -0.000002301293     0.000018526841
       9       -0.000014893241    -0.000010531841    -0.000009885494
      10        0.004557247068     0.002329276281    -0.004440341011
      11        0.000001338374     0.000005228473     0.000001426300
      12       -0.000001550136     0.000003129040     0.000001088287
      13        0.000000818678    -0.000001255118     0.000003734340
      14       -0.002937603644    -0.001426497181     0.002054487487

  **** Optimization is complete! (in 11 steps) ****
    Final optimized geometry and variables:
    Molecular point group: c1

    Geometry (in Angstrom), charge = 0, multiplicity = 1:

    H           -1.879913516175     0.286637435431     0.710100358432
    H           -1.655894224202     1.986449789777     0.284700301328
    H           -1.450610254845     0.738097359117    -0.944487362182
    C           -1.278891504574     0.975333631774     0.107295720755
    H            0.754208129723     1.561016516536    -0.196790736339
    H            0.361900171484     1.257870564707     1.483371603520
    C            0.201047322378     0.883720893223     0.466388198803
    H            1.895906749151    -0.444386775318     0.348813255164
    H            0.539677487290    -1.094830469110     1.246765688423
    C            0.803154431985    -0.521907008345     0.348511272925
    H            0.862819356418    -2.272194051055    -0.928269678248
    H            0.537439755003    -0.770331743815    -1.799505499007
    H           -0.731437166002    -1.524288229051    -0.826221293627
    C            0.339014477854    -1.313970933691    -0.869996292252

*** Psi4 exiting successfully. Buy a developer a beer!
