                               Psi4 1.1 release

  ==> Input File <==

--------------------------------------------------------------------------

memory 5 Gb

molecule phepyrFOH_neutral {
  symmetry C1
  0 1
  C      1.885   -1.036   -0.112
  C      0.807   -0.463   0.561
  C      3.825   -3.269   -0.988
  C      5.328   -1.753   0.119
  C      1.800   -1.079   2.676
  C      4.927   -3.802   -1.637
  C      6.363   -2.354   -0.579
  C      2.921   -1.631   0.608
  C      4.038   -2.225   -0.095
  C      0.764   -0.484   1.955
  C      2.878   -1.652   2.002
  N      6.195   -3.370   -1.455
  O      -0.289   0.076   2.612
  F      3.866   -2.220   2.709
  H      1.904   -1.012   -1.199
  H      0.002   -0.002   -0.006
  H      2.833   -3.663   -1.183
  H      5.532   -0.940   0.809
  H      1.772   -1.099   3.762
  H      4.814   -4.616   -2.345
  H      7.387   -2.023   -0.446
  H      -0.445   -0.385   3.452
  units Angstrom
}

dih_string = "2 10 13 22 150"
set optking fixed_dihedral = $dih_string

optimize('MP2/aug-cc-PVTZ')
--------------------------------------------------------------------------

    Molecular point group: c1
  Charge       = 0
  Multiplicity = 1
  Basis Set: AUG-CC-PVTZ
    Blend: AUG-CC-PVTZ
  Basis Set: (AUG-CC-PVTZ AUX)
    Blend: AUG-CC-PVTZ-JKFIT
  @DF-RHF Final Energy:  -650.17257122082947
    Total Energy =                       -650.1725712208294681
  Basis Set: (AUG-CC-PVTZ AUX)
    Blend: AUG-CC-PVTZ-RI
    Molecular point group: c1
  Basis Set: AUG-CC-PVTZ
    Blend: AUG-CC-PVTZ
  Basis Set: (AUG-CC-PVTZ AUX)
    Blend: AUG-CC-PVTZ-JKFIT
  Basis Set: (AUG-CC-PVTZ AUX)
    Blend: AUG-CC-PVTZ-JKFIT
	 Reference Energy          =    -650.1725712208294681 [Eh]
	 Singles Energy            =      -0.0000000000000005 [Eh]
	 Same-Spin Energy          =      -0.6774245753568023 [Eh]
	 Opposite-Spin Energy      =      -2.0191894232974996 [Eh]
	 Correlation Energy        =      -2.6966139986543025 [Eh]
	 Total Energy              =    -652.8691852194838248 [Eh]
	 SCS Total Energy          =    -652.8214067205720994 [Eh]
  @DF-RHF Final Energy:  -650.17875159711480
    Total Energy =                       -650.1787515971147968
  @DF-RHF Final Energy:  -650.18044317835404
    Total Energy =                       -650.1804431783539258
  @DF-RHF Final Energy:  -650.18053951127206
    Total Energy =                       -650.1805395112719452
  @DF-RHF Final Energy:  -650.18048214788325
    Total Energy =                       -650.1804821478831400
  @DF-RHF Final Energy:  -650.18052149785819
    Total Energy =                       -650.1805214978580807
  @DF-RHF Final Energy:  -650.18059141947936
    Total Energy =                       -650.1805914194792422
  @DF-RHF Final Energy:  -650.18063489173164
    Total Energy =                       -650.1806348917316427
  @DF-RHF Final Energy:  -650.18059486495099
    Total Energy =                       -650.1805948649509901
  @DF-RHF Final Energy:  -650.18046330414973
    Total Energy =                       -650.1804633041497254
  @DF-RHF Final Energy:  -650.18054180971922
    Total Energy =                       -650.1805418097192160
  Charge       = 0
  Multiplicity = 1
  Basis Set: AUG-CC-PVTZ
    Blend: AUG-CC-PVTZ
  Basis Set: (AUG-CC-PVTZ AUX)
    Blend: AUG-CC-PVTZ-JKFIT

    Orbital Energies (a.u.)
    -----------------------

    Doubly Occupied:

       1A    -26.323519     2A    -20.607861     3A    -15.561994
       4A    -11.347540     5A    -11.325808     6A    -11.272012
       7A    -11.270877     8A    -11.269091     9A    -11.263322
      10A    -11.256971    11A    -11.251633    12A    -11.242762
      13A    -11.238433    14A    -11.236278    15A     -1.642350
      16A     -1.425077    17A     -1.258870    18A     -1.186408
      19A     -1.112891    20A     -1.045098    21A     -1.034078
      22A     -1.024808    23A     -0.893925    24A     -0.879725
      25A     -0.853549    26A     -0.829288    27A     -0.773570
      28A     -0.746346    29A     -0.727170    30A     -0.710694
      31A     -0.697005    32A     -0.667482    33A     -0.662417
      34A     -0.641196    35A     -0.635962    36A     -0.624016
      37A     -0.609726    38A     -0.595942    39A     -0.572971
      40A     -0.546006    41A     -0.543738    42A     -0.536726
      43A     -0.515342    44A     -0.501286    45A     -0.418060
      46A     -0.401385    47A     -0.361981    48A     -0.347992
      49A     -0.322258

  @DF-RHF Final Energy:  -650.18052623208928

   => Energetics <=

    Nuclear Repulsion Energy =            814.1090047716767231
    One-Electron Energy =               -2502.9521780793820653
    Two-Electron Energy =                1038.6626470756161780
    DFT Exchange-Correlation Energy =       0.0000000000000000
    Empirical Dispersion Energy =           0.0000000000000000
    PCM Polarization Energy =               0.0000000000000000
    EFP Energy =                            0.0000000000000000
    Total Energy =                       -650.1805262320892780
  Basis Set: (AUG-CC-PVTZ AUX)
    Blend: AUG-CC-PVTZ-RI
    Molecular point group: c1
  Basis Set: AUG-CC-PVTZ
    Blend: AUG-CC-PVTZ
  Basis Set: (AUG-CC-PVTZ AUX)
    Blend: AUG-CC-PVTZ-JKFIT
  Basis Set: (AUG-CC-PVTZ AUX)
    Blend: AUG-CC-PVTZ-JKFIT
	 Reference Energy          =    -650.1805262320892780 [Eh]
	 Singles Energy            =      -0.0000000000000003 [Eh]
	 Same-Spin Energy          =      -0.6768335979455161 [Eh]
	 Opposite-Spin Energy      =      -2.0170224097591234 [Eh]
	 Correlation Energy        =      -2.6938560077046398 [Eh]
	 Total Energy              =    -652.8743822397939311 [Eh]

	 ================> DF-SCS-MP2 Energies <==================
	-----------------------------------------------------------
	 SCS Same-Spin Scale       =       0.3333333333333333 [-]
	 SCS Opposite-Spin Scale   =       1.2000000000000000 [-]
	 SCS Same-Spin Energy      =      -0.2256111993151720 [Eh]
	 SCS Opposite-Spin Energy  =      -2.4204268917109482 [Eh]
	 SCS Correlation Energy    =      -2.6460380910261208 [Eh]
	 SCS Total Energy          =    -652.8265643231153490 [Eh]
	-----------------------------------------------------------

  -Total Gradient:
     Atom            X                  Y                   Z
    ------   -----------------  -----------------  -----------------
       1       -0.000005234729     0.000008421969    -0.000012271992
       2       -0.000924217188    -0.001997357441     0.000256692961
       3        0.000002153705    -0.000014803933    -0.000022206352
       4        0.000025738705    -0.000006310545    -0.000017744975
       5        0.000012548932     0.000006439163    -0.000008447372
       6       -0.000012090315    -0.000012322874     0.000004335830
       7        0.000005647602     0.000009281346    -0.000007209002
       8        0.000014611559    -0.000009549149     0.000014050611
       9       -0.000012333985     0.000021024274     0.000013813515
      10        0.000906499446     0.002424889713    -0.000599345434
      11       -0.000008316974    -0.000006942432     0.000001721787
      12        0.000005578261     0.000004814676     0.000002553110
      13        0.001720780400     0.001787664308     0.001378558279
      14       -0.000002640428     0.000008660606     0.000012828275
      15        0.000000379552    -0.000001104560     0.000011150872
      16        0.000006023646    -0.000002606168    -0.000003219862
      17        0.000007362174     0.000004404805     0.000002092273
      18       -0.000008944295    -0.000007242955     0.000003630072
      19        0.000000995509     0.000001084859    -0.000004278978
      20       -0.000002606859     0.000003004355    -0.000002517596
      21       -0.000000001637    -0.000002088321     0.000006333260
      22       -0.001731933084    -0.002219361698    -0.001030519304

  **** Optimization is complete! (in 12 steps) ****
    Final optimized geometry and variables:
    Molecular point group: c1

    Geometry (in Angstrom), charge = 0, multiplicity = 1:

    C           -1.419226369195     0.544311444888    -0.742447612292
    C           -2.509869067934     1.098686583658    -0.098306659802
    C            0.640436634350    -1.349636163663    -1.818741352964
    C            2.173153018479    -0.177309945945    -0.438585118169
    C           -1.366457315074     0.860871547308     1.998179312569
    C            1.727223704659    -1.876875984808    -2.496944789118
    C            3.195304161071    -0.753547990810    -1.175588083556
    C           -0.279859519491     0.126172548730    -0.052799571524
    C            0.851103736062    -0.471339181577    -0.759519816203
    C           -2.481054363999     1.264610184733     1.278451108713
    C           -0.300461458527     0.302440188952     1.324190779125
    N            2.995954316474    -1.593684126779    -2.193901000431
    O           -3.565532922264     1.837655382080     1.875771210001
    F            0.751136386909    -0.105259708755     2.060269820325
    H           -1.436511446642     0.439972016769    -1.816845458000
    H           -3.381644432556     1.415271310741    -0.647732040062
    H           -0.361639439784    -1.635915556494    -2.100590905352
    H            2.405530994375     0.502318444647     0.365100734072
    H           -1.310630424656     0.975500376811     3.069552598364
    H            1.572554226529    -2.562667147392    -3.318226708462
    H            4.225230036707    -0.527045907563    -0.938289417905
    H           -3.653787150954     1.494274040956     2.769575432928

*** Psi4 exiting successfully. Buy a developer a beer!
