                               Psi4 1.1 release

  ==> Input File <==

--------------------------------------------------------------------------

memory 5 Gb

molecule phepyrOH_zwitterion {
  symmetry C1
  0 1
  C      1.885   -1.036   -0.112
  C      2.878   -1.652   2.002
  C      0.807   -0.463   0.561
  C      1.800   -1.079   2.676
  C      4.251   -1.943   -1.436
  C      4.906   -3.082   0.583
  C      5.332   -2.528   -2.080
  C      5.970   -3.638   -0.113
  C      2.921   -1.631   0.608
  C      4.040   -2.226   -0.090
  C      0.764   -0.484   1.955
  N      6.150   -3.349   -1.408
  O      -0.227   0.042   2.574
  H      1.904   -1.011   -1.199
  H      3.678   -2.112   2.577
  H      0.011   -0.006   -0.025
  H      1.791   -1.108   3.764
  H      3.591   -1.278   -1.986
  H      4.765   -3.321   1.633
  H      5.573   -2.365   -3.122
  H      6.692   -4.312   0.328
  H      6.938   -3.769   -1.901
  units Angstrom
}

dih_string = "1 9 10 5 15"
set optking fixed_dihedral = $dih_string

optimize('MP2/aug-cc-PVTZ')
--------------------------------------------------------------------------

    Molecular point group: c1
  Charge       = 0
  Multiplicity = 1
  Basis Set: AUG-CC-PVTZ
    Blend: AUG-CC-PVTZ
  Basis Set: (AUG-CC-PVTZ AUX)
    Blend: AUG-CC-PVTZ-JKFIT

    Orbital Energies (a.u.)
    -----------------------

    Doubly Occupied:

       1A    -20.437696     2A    -15.691321     3A    -11.351835
       4A    -11.351809     5A    -11.302456     6A    -11.280857
       7A    -11.280729     8A    -11.249718     9A    -11.231422
      10A    -11.231371    11A    -11.216981    12A    -11.192430
      13A    -11.192397    14A     -1.378355    15A     -1.261360
      16A     -1.178713    17A     -1.109249    18A     -1.105800
      19A     -0.999949    20A     -0.991364    21A     -0.935216
      22A     -0.901351    23A     -0.832355    24A     -0.816981
      25A     -0.785827    26A     -0.729093    27A     -0.716733
      28A     -0.698972    29A     -0.668360    30A     -0.649887
      31A     -0.618495    32A     -0.612496    33A     -0.605995
      34A     -0.587739    35A     -0.559060    36A     -0.535779
      37A     -0.522014    38A     -0.485278    39A     -0.481874
      40A     -0.469250    41A     -0.416110    42A     -0.390290
      43A     -0.348107    44A     -0.326835    45A     -0.235341

  @DF-RHF Final Energy:  -551.21618288823004

   => Energetics <=

    Nuclear Repulsion Energy =            702.0280927989572319
    One-Electron Energy =               -2140.5580530349161563
    Two-Electron Energy =                 887.3137773477288874
    DFT Exchange-Correlation Energy =       0.0000000000000000
    Empirical Dispersion Energy =           0.0000000000000000
    PCM Polarization Energy =               0.0000000000000000
    EFP Energy =                            0.0000000000000000
    Total Energy =                       -551.2161828882300370
  Basis Set: (AUG-CC-PVTZ AUX)
    Blend: AUG-CC-PVTZ-RI
    Molecular point group: c1

    Geometry (in Angstrom), charge = 0, multiplicity = 1:

       Center              X                  Y                   Z               Mass
    ------------   -----------------  -----------------  -----------------  -----------------
           C         -1.297074803612     0.734060198550    -0.557272860237    12.000000000000
           C         -0.304074803612     0.118060198550     1.556727139763    12.000000000000
           C         -2.375074803612     1.307060198550     0.115727139763    12.000000000000
           C         -1.382074803612     0.691060198550     2.230727139763    12.000000000000
           C          1.068925196388    -0.172939801450    -1.881272860237    12.000000000000
           C          1.723925196388    -1.311939801450     0.137727139763    12.000000000000
           C          2.149925196388    -0.757939801450    -2.525272860237    12.000000000000
           C          2.787925196388    -1.867939801450    -0.558272860237    12.000000000000
           C         -0.261074803612     0.139060198550     0.162727139763    12.000000000000
           C          0.857925196388    -0.455939801450    -0.535272860237    12.000000000000
           C         -2.418074803612     1.286060198550     1.509727139763    12.000000000000
           N          2.967925196388    -1.578939801450    -1.853272860237    14.003074004780
           O         -3.409074803612     1.812060198550     2.128727139763    15.994914619560
           H         -1.278074803612     0.759060198550    -1.644272860237     1.007825032070
           H          0.495925196388    -0.341939801450     2.131727139763     1.007825032070
           H         -3.171074803612     1.764060198550    -0.470272860237     1.007825032070
           H         -1.391074803612     0.662060198550     3.318727139763     1.007825032070
           H          0.408925196388     0.492060198550    -2.431272860237     1.007825032070
           H          1.582925196388    -1.550939801450     1.187727139763     1.007825032070
           H          2.390925196388    -0.594939801450    -3.567272860237     1.007825032070
           H          3.509925196388    -2.541939801450    -0.117272860237     1.007825032070
           H          3.755925196388    -1.998939801450    -2.346272860237     1.007825032070

  Basis Set: AUG-CC-PVTZ
    Blend: AUG-CC-PVTZ
  Basis Set: (AUG-CC-PVTZ AUX)
    Blend: AUG-CC-PVTZ-JKFIT
  Basis Set: (AUG-CC-PVTZ AUX)
    Blend: AUG-CC-PVTZ-JKFIT
	 Reference Energy          =    -551.2161828882300370 [Eh]
	 Singles Energy            =      -0.0000000000000002 [Eh]
	 Same-Spin Energy          =      -0.6065277917508921 [Eh]
	 Opposite-Spin Energy      =      -1.8410778925176632 [Eh]
	 Correlation Energy        =      -2.4476056842685554 [Eh]
	 Total Energy              =    -553.6637885724985608 [Eh]

	 ================> DF-SCS-MP2 Energies <==================
	-----------------------------------------------------------
	 SCS Same-Spin Scale       =       0.3333333333333333 [-]
	 SCS Opposite-Spin Scale   =       1.2000000000000000 [-]
	 SCS Same-Spin Energy      =      -0.2021759305836307 [Eh]
	 SCS Opposite-Spin Energy  =      -2.2092934710211956 [Eh]
	 SCS Correlation Energy    =      -2.4114694016048261 [Eh]
	 SCS Total Energy          =    -553.6276522898348276 [Eh]
	-----------------------------------------------------------

  -Total Gradient:
     Atom            X                  Y                   Z
    ------   -----------------  -----------------  -----------------
       1        0.032262088084    -0.023319571199    -0.004314213597
       2        0.024731561495    -0.006964023368    -0.031309818431
       3       -0.028544782146     0.014017941341     0.055050983036
       4       -0.055640570326     0.030590953830    -0.001574570654
       5       -0.027878376548     0.013776726500     0.034100205211
       6       -0.039787133257     0.022151749426     0.008213785824
       7        0.029492697830    -0.022234369857     0.004963813141
       8        0.016238545911    -0.001957022090    -0.033914276721
       9       -0.042468412863     0.022545814544     0.026413974026
      10        0.055936991220    -0.029745652278    -0.034574979066
      11        0.066468202113    -0.035142160979    -0.042047089903
      12       -0.023254305234     0.012163606994     0.015081748055
      13       -0.020971557911     0.011071493231     0.013176958355
      14        0.002342785059     0.000699477119    -0.006512313522
      15        0.004852034838    -0.004495853002     0.001895126044
      16       -0.002284521405     0.002324819357    -0.009013659856
      17        0.004782590728    -0.003640626152     0.007102775421
      18       -0.007709086744     0.004638497230    -0.002556580446
      19       -0.002532689763     0.000846258215     0.008715296763
      20        0.001789663549    -0.000918210672    -0.002880284009
      21        0.003063835221    -0.001538843817    -0.000253145490
      22        0.009110440164    -0.004871004369    -0.005763734171

*** Psi4 exiting successfully. Buy a developer a beer!
