                               Psi4 1.1 release

  ==> Input File <==

--------------------------------------------------------------------------

molecule phepyr {
  symmetry C1
  0 1
  C      1.885   -1.036   -0.112
  C      0.807   -0.463   0.561
  C      2.921   -1.631   0.608
  C      0.764   -0.484   1.955
  C      2.878   -1.652   2.002
  C      1.112   -0.082   4.816
  C      2.353   -2.142   4.823
  C      1.096   -0.150   6.200
  C      2.282   -2.117   6.206
  C      1.800   -1.079   2.676
  C      1.755   -1.101   4.122
  N      1.666   -1.145   6.915
  H      1.917   -1.021   -1.198
  H      -0.001   -0.002   0.000
  H      3.760   -2.079   0.084
  H      -0.084   -0.033   2.466
  H      3.693   -2.120   2.550
  H      0.633   0.747   4.304
  H      2.864   -2.953   4.315
  H      0.606   0.620   6.788
  H      2.733   -2.905   6.799
  units Angstrom
}

dih_string = "4 10 11 6 330"
set optking fixed_dihedral = $dih_string

optimize('MP2/aug-cc-PVTZ')
--------------------------------------------------------------------------

    Molecular point group: c1
  Charge       = 0
  Multiplicity = 1
  Basis Set: AUG-CC-PVTZ
    Blend: AUG-CC-PVTZ
  Basis Set: (AUG-CC-PVTZ AUX)
    Blend: AUG-CC-PVTZ-JKFIT
  @DF-RHF Final Energy:  -476.39557157158151
    Total Energy =                       -476.3955715715815131
  Basis Set: (AUG-CC-PVTZ AUX)
    Blend: AUG-CC-PVTZ-RI
    Molecular point group: c1
  Basis Set: AUG-CC-PVTZ
    Blend: AUG-CC-PVTZ
  Basis Set: (AUG-CC-PVTZ AUX)
    Blend: AUG-CC-PVTZ-JKFIT
  Basis Set: (AUG-CC-PVTZ AUX)
    Blend: AUG-CC-PVTZ-JKFIT
	 Reference Energy          =    -476.3955715715815131 [Eh]
	 Singles Energy            =      -0.0000000000000002 [Eh]
	 Same-Spin Energy          =      -0.5353871172476046 [Eh]
	 Opposite-Spin Energy      =      -1.6435914999966212 [Eh]
	 Correlation Energy        =      -2.1789786172442258 [Eh]
	 Total Energy              =    -478.5745501888257536 [Eh]
	 SCS Total Energy          =    -478.5463437439933045 [Eh]
  @DF-RHF Final Energy:  -476.40093342005088
    Total Energy =                       -476.4009334200508192
  @DF-RHF Final Energy:  -476.40173273826798
    Total Energy =                       -476.4017327382680378
  @DF-RHF Final Energy:  -476.40172580981192
    Total Energy =                       -476.4017258098118646
  Charge       = 0
  Multiplicity = 1
  Basis Set: AUG-CC-PVTZ
    Blend: AUG-CC-PVTZ
  Basis Set: (AUG-CC-PVTZ AUX)
    Blend: AUG-CC-PVTZ-JKFIT

    Orbital Energies (a.u.)
    -----------------------

    Doubly Occupied:

       1A    -15.561773     2A    -11.272212     3A    -11.272189
       4A    -11.266175     5A    -11.253841     6A    -11.244845
       7A    -11.244775     8A    -11.244004     9A    -11.243142
      10A    -11.242473    11A    -11.237089    12A    -11.237055
      13A     -1.258968    14A     -1.176103    15A     -1.108481
      16A     -1.037529    17A     -1.026285    18A     -1.019259
      19A     -0.882182    20A     -0.868614    21A     -0.829314
      22A     -0.809529    23A     -0.735642    24A     -0.685732
      25A     -0.673841    26A     -0.662837    27A     -0.631915
      28A     -0.626696    29A     -0.604865    30A     -0.591685
      31A     -0.583869    32A     -0.548393    33A     -0.526804
      34A     -0.514477    35A     -0.511816    36A     -0.496404
      37A     -0.418367    38A     -0.406426    39A     -0.350133
      40A     -0.347827    41A     -0.323294

  @DF-RHF Final Energy:  -476.40169832712115

   => Energetics <=

    Nuclear Repulsion Energy =            606.2813508974566048
    One-Electron Energy =               -1846.2123817776339365
    Two-Electron Energy =                 763.5293325530561788
    DFT Exchange-Correlation Energy =       0.0000000000000000
    Empirical Dispersion Energy =           0.0000000000000000
    PCM Polarization Energy =               0.0000000000000000
    EFP Energy =                            0.0000000000000000
    Total Energy =                       -476.4016983271211529
  Basis Set: (AUG-CC-PVTZ AUX)
    Blend: AUG-CC-PVTZ-RI
    Molecular point group: c1
  Basis Set: AUG-CC-PVTZ
    Blend: AUG-CC-PVTZ
  Basis Set: (AUG-CC-PVTZ AUX)
    Blend: AUG-CC-PVTZ-JKFIT
  Basis Set: (AUG-CC-PVTZ AUX)
    Blend: AUG-CC-PVTZ-JKFIT
	 Reference Energy          =    -476.4016983271211529 [Eh]
	 Singles Energy            =      -0.0000000000000003 [Eh]
	 Same-Spin Energy          =      -0.5344101372889922 [Eh]
	 Opposite-Spin Energy      =      -1.6412517896224359 [Eh]
	 Correlation Energy        =      -2.1756619269114288 [Eh]
	 Total Energy              =    -478.5773602540325555 [Eh]

	 ================> DF-SCS-MP2 Energies <==================
	-----------------------------------------------------------
	 SCS Same-Spin Scale       =       0.3333333333333333 [-]
	 SCS Opposite-Spin Scale   =       1.2000000000000000 [-]
	 SCS Same-Spin Energy      =      -0.1781367124296641 [Eh]
	 SCS Opposite-Spin Energy  =      -1.9695021475469230 [Eh]
	 SCS Correlation Energy    =      -2.1476388599765874 [Eh]
	 SCS Total Energy          =    -478.5493371870977626 [Eh]
	-----------------------------------------------------------

  -Total Gradient:
     Atom            X                  Y                   Z
    ------   -----------------  -----------------  -----------------
       1        0.000010368148     0.000002032060    -0.000020892670
       2        0.000000085905    -0.000019029063    -0.000028087220
       3       -0.000002346493     0.000025889254    -0.000042578292
       4        0.000522525229     0.000981846297     0.000083409201
       5        0.000012569722     0.000017656807     0.000086883831
       6       -0.000905983265    -0.000533611979    -0.000091806647
       7       -0.000073465072    -0.000047456287    -0.000077018320
       8       -0.000199864676    -0.000173175048     0.000047207317
       9        0.000167581058     0.000151478895     0.000067228453
      10       -0.001305063713    -0.001793960048    -0.000027362171
      11        0.001759365090     0.001377800864     0.000045061321
      12        0.000013397473     0.000002494889     0.000038740541
      13       -0.000000322905    -0.000004057592    -0.000020370312
      14       -0.000015596653     0.000029681157    -0.000003525092
      15        0.000010945035    -0.000027190035     0.000000347940
      16       -0.000018659082     0.000002208370    -0.000009316989
      17        0.000012039483    -0.000010870271    -0.000004771361
      18        0.000007149767     0.000026555633    -0.000013901482
      19        0.000000734932    -0.000015529086    -0.000017602293
      20        0.000074573850     0.000022888387    -0.000001972732
      21       -0.000070033828    -0.000015653204    -0.000009673035

  **** Optimization is complete! (in 5 steps) ****
    Final optimized geometry and variables:
    Molecular point group: c1

    Geometry (in Angstrom), charge = 0, multiplicity = 1:

    C            0.110103923119     0.057149218899    -3.551972600241
    C           -0.966952787118     0.615894095698    -2.877119644587
    C            1.144775737373    -0.524070987015    -2.831411183480
    C           -1.009070904510     0.591213190361    -1.491651736379
    C            1.100749789437    -0.547107868848    -1.445981684265
    C           -0.644677135250     0.997882719524     1.434668609148
    C            0.556682112024    -1.042940406841     1.442601872052
    C           -0.666187397101     0.933838899386     2.818604985977
    C            0.487855451639    -1.021765536029     2.826277744986
    C            0.021609110169     0.005792239821    -0.756102690677
    C           -0.016183396649    -0.008955848804     0.706731545421
    N           -0.111754561557    -0.054539869118     3.524232296697
    H            0.143460112110     0.075734767548    -4.630479806222
    H           -1.778376343441     1.063790844464    -3.430008170386
    H            1.990961967678    -0.950450510711    -3.347984040665
    H           -1.864582480091     1.001382179192    -0.976591998795
    H            1.924706944969    -0.972270835211    -0.892913677761
    H           -1.090074612182     1.843297091014     0.932932462881
    H            1.031677098479    -1.874429653778     0.944681050660
    H           -1.145153878334     1.717687508532     3.388704491210
    H            0.926744030406    -1.824797723172     3.401902907587

*** Psi4 exiting successfully. Buy a developer a beer!
