                               Psi4 1.1 release

  ==> Input File <==

--------------------------------------------------------------------------

memory 5 Gb

molecule phepyrFOH_neutral {
  symmetry C1
  0 1
  C      1.885   -1.036   -0.112
  C      0.807   -0.463   0.561
  C      5.298   -2.252   0.493
  C      3.855   -2.772   -1.360
  C      1.800   -1.079   2.676
  C      6.334   -2.833   -0.221
  C      4.955   -3.329   -1.991
  C      2.921   -1.631   0.608
  C      4.038   -2.225   -0.095
  C      0.764   -0.484   1.955
  C      2.878   -1.652   2.002
  N      6.194   -3.374   -1.452
  O      -0.289   0.076   2.612
  F      3.866   -2.220   2.709
  H      1.904   -1.012   -1.199
  H      0.002   -0.002   -0.006
  H      5.479   -1.836   1.479
  H      2.886   -2.768   -1.850
  H      1.772   -1.099   3.762
  H      7.335   -2.881   0.194
  H      4.865   -3.768   -2.979
  H      -0.175   -0.018   3.571
  units Angstrom
}

dih_string = "1 8 9 3 150"
set optking fixed_dihedral = $dih_string

optimize('MP2/aug-cc-PVTZ')
--------------------------------------------------------------------------

    Molecular point group: c1
  Charge       = 0
  Multiplicity = 1
  Basis Set: AUG-CC-PVTZ
    Blend: AUG-CC-PVTZ
  Basis Set: (AUG-CC-PVTZ AUX)
    Blend: AUG-CC-PVTZ-JKFIT
  @DF-RHF Final Energy:  -650.16935895895756
    Total Energy =                       -650.1693589589576732
  Basis Set: (AUG-CC-PVTZ AUX)
    Blend: AUG-CC-PVTZ-RI
    Molecular point group: c1
  Basis Set: AUG-CC-PVTZ
    Blend: AUG-CC-PVTZ
  Basis Set: (AUG-CC-PVTZ AUX)
    Blend: AUG-CC-PVTZ-JKFIT
  Basis Set: (AUG-CC-PVTZ AUX)
    Blend: AUG-CC-PVTZ-JKFIT
	 Reference Energy          =    -650.1693589589575595 [Eh]
	 Singles Energy            =      -0.0000000000000000 [Eh]
	 Same-Spin Energy          =      -0.6787353532900162 [Eh]
	 Opposite-Spin Energy      =      -2.0208100130607458 [Eh]
	 Correlation Energy        =      -2.6995453663507618 [Eh]
	 Total Energy              =    -652.8689043253083355 [Eh]
	 SCS Total Energy          =    -652.8205760923938215 [Eh]
  @DF-RHF Final Energy:  -650.17646520647838
    Total Energy =                       -650.1764652064782695
  @DF-RHF Final Energy:  -650.17948623318341
    Total Energy =                       -650.1794862331835247
  @DF-RHF Final Energy:  -650.18043843997907
    Total Energy =                       -650.1804384399790706
  @DF-RHF Final Energy:  -650.18077956066122
    Total Energy =                       -650.1807795606612217
  @DF-RHF Final Energy:  -650.18095941331899
    Total Energy =                       -650.1809594133189876
  @DF-RHF Final Energy:  -650.18102412187477
    Total Energy =                       -650.1810241218747706
  Charge       = 0
  Multiplicity = 1
  Basis Set: AUG-CC-PVTZ
    Blend: AUG-CC-PVTZ
  Basis Set: (AUG-CC-PVTZ AUX)
    Blend: AUG-CC-PVTZ-JKFIT

    Orbital Energies (a.u.)
    -----------------------

    Doubly Occupied:

       1A    -26.324693     2A    -20.612930     3A    -15.560693
       4A    -11.349372     5A    -11.328858     6A    -11.270974
       7A    -11.269785     8A    -11.269715     9A    -11.263916
      10A    -11.256925    11A    -11.251997    12A    -11.242445
      13A    -11.237380    14A    -11.234597    15A     -1.643674
      16A     -1.430846    17A     -1.257889    18A     -1.186642
      19A     -1.112600    20A     -1.045821    21A     -1.032994
      22A     -1.025403    23A     -0.895838    24A     -0.880872
      25A     -0.852696    26A     -0.830156    27A     -0.775259
      28A     -0.749441    29A     -0.726420    30A     -0.711456
      31A     -0.697262    32A     -0.670088    33A     -0.660716
      34A     -0.638840    35A     -0.635750    36A     -0.617219
      37A     -0.613087    38A     -0.594317    39A     -0.582488
      40A     -0.549545    41A     -0.544489    42A     -0.539171
      43A     -0.514137    44A     -0.501934    45A     -0.417273
      46A     -0.403497    47A     -0.362896    48A     -0.347023
      49A     -0.317548

  @DF-RHF Final Energy:  -650.18105597491626

   => Energetics <=

    Nuclear Repulsion Energy =            814.0347341823201077
    One-Electron Energy =               -2502.7524486599340889
    Two-Electron Energy =                1038.5366585026977191
    DFT Exchange-Correlation Energy =       0.0000000000000000
    Empirical Dispersion Energy =           0.0000000000000000
    PCM Polarization Energy =               0.0000000000000000
    EFP Energy =                            0.0000000000000000
    Total Energy =                       -650.1810559749162621
  Basis Set: (AUG-CC-PVTZ AUX)
    Blend: AUG-CC-PVTZ-RI
    Molecular point group: c1
  Basis Set: AUG-CC-PVTZ
    Blend: AUG-CC-PVTZ
  Basis Set: (AUG-CC-PVTZ AUX)
    Blend: AUG-CC-PVTZ-JKFIT
  Basis Set: (AUG-CC-PVTZ AUX)
    Blend: AUG-CC-PVTZ-JKFIT
	 Reference Energy          =    -650.1810559749162621 [Eh]
	 Singles Energy            =      -0.0000000000000002 [Eh]
	 Same-Spin Energy          =      -0.6770833254490278 [Eh]
	 Opposite-Spin Energy      =      -2.0174256437391369 [Eh]
	 Correlation Energy        =      -2.6945089691881647 [Eh]
	 Total Energy              =    -652.8755649441044397 [Eh]

	 ================> DF-SCS-MP2 Energies <==================
	-----------------------------------------------------------
	 SCS Same-Spin Scale       =       0.3333333333333333 [-]
	 SCS Opposite-Spin Scale   =       1.2000000000000000 [-]
	 SCS Same-Spin Energy      =      -0.2256944418163426 [Eh]
	 SCS Opposite-Spin Energy  =      -2.4209107724869643 [Eh]
	 SCS Correlation Energy    =      -2.6466052143033068 [Eh]
	 SCS Total Energy          =    -652.8276611892196115 [Eh]
	-----------------------------------------------------------

  -Total Gradient:
     Atom            X                  Y                   Z
    ------   -----------------  -----------------  -----------------
       1       -0.000988278065    -0.001664708234    -0.000059481657
       2        0.000007100790    -0.000042685139    -0.000019368506
       3       -0.000472000983    -0.001759143407     0.000832119186
       4        0.000012199504     0.000009799788    -0.000021596085
       5       -0.000000401377     0.000028521762     0.000046585090
       6        0.000005759377     0.000005047575    -0.000018447694
       7       -0.000038716491    -0.000076780515     0.000036953069
       8        0.001259441273     0.001612270525     0.000506898423
       9        0.000221750431     0.001860784339    -0.001273570477
      10        0.000039359208     0.000023142287     0.000004677642
      11       -0.000149116396    -0.000057686823    -0.000084639045
      12        0.000019855659     0.000042918255    -0.000009261910
      13       -0.000012443668    -0.000000666335    -0.000008596470
      14        0.000077090239     0.000005510733     0.000047272641
      15        0.000009437441     0.000000548784     0.000000793515
      16       -0.000009728078     0.000008392572     0.000014991118
      17        0.000002044256     0.000001761348     0.000001777663
      18        0.000002237845     0.000008543218     0.000003443986
      19        0.000010326077    -0.000007089216    -0.000002259873
      20       -0.000004551955    -0.000015887011     0.000010632706
      21        0.000007447625     0.000017334482    -0.000008563581
      22        0.000001187284     0.000000071015    -0.000000359743

  **** Optimization is complete! (in 8 steps) ****
    Final optimized geometry and variables:
    Molecular point group: c1

    Geometry (in Angstrom), charge = 0, multiplicity = 1:

    C           -1.271961171853     0.799371753060    -0.774114100819
    C           -2.374034258648     1.363934991794    -0.162624298760
    C            2.170072783411    -0.496904357066    -0.194587153784
    C            0.726390733744    -0.998338383578    -2.005477648867
    C           -1.488817256917     0.721411450439     1.969819844887
    C            3.193117330071    -1.090233167807    -0.916863546653
    C            1.809604990975    -1.571448607809    -2.650206385544
    C           -0.240111336532     0.188849250173    -0.055305377368
    C            0.891554578535    -0.429341360646    -0.744118265877
    C           -2.484966030388     1.326723129945     1.220168208625
    C           -0.400491805158     0.170969770117     1.324557470021
    N            3.037629683467    -1.625546515972    -2.129578943934
    O           -3.584518820950     1.896796538425     1.779565812841
    F            0.518608537138    -0.438146983854     2.099051471398
    H           -1.185002318462     0.859726447100    -1.848057597940
    H           -3.148270320750     1.841812781206    -0.740794752652
    H            2.378485398800    -0.073799212956     0.773451810006
    H           -0.244455421778    -1.019912821224    -2.476129098127
    H           -1.542649932985     0.658648891955     3.046013965398
    H            4.188775783375    -1.136731209482    -0.498519106061
    H            1.683723879628    -2.014176873654    -3.628417213775
    H           -3.538706201194     1.804937934344     2.736118509984

*** Psi4 exiting successfully. Buy a developer a beer!
