                               Psi4 1.1 release

  ==> Input File <==

--------------------------------------------------------------------------

memory 5 Gb

molecule phepyrOH_neutral {
  symmetry C1
  0 1
  C      1.885   -1.036   -0.112
  C      2.878   -1.652   2.002
  C      0.807   -0.463   0.561
  C      1.800   -1.079   2.676
  C      3.862   -2.773   -1.356
  C      5.298   -2.250   0.501
  C      4.965   -3.329   -1.983
  C      6.337   -2.829   -0.209
  C      2.921   -1.631   0.608
  C      4.040   -2.225   -0.090
  C      0.764   -0.484   1.955
  N      6.202   -3.372   -1.440
  O      -0.288   0.076   2.612
  H      1.904   -1.012   -1.199
  H      3.678   -2.112   2.578
  H      0.003   -0.001   -0.006
  H      1.772   -1.098   3.762
  H      2.895   -2.772   -1.850
  H      5.475   -1.833   1.487
  H      4.879   -3.768   -2.972
  H      7.337   -2.875   0.208
  H      -0.301   -0.216   3.537
  units Angstrom
}

dih_string = "3 11 13 22 165"
set optking fixed_dihedral = $dih_string

optimize('MP2/aug-cc-PVTZ')
--------------------------------------------------------------------------

    Molecular point group: c1
  Charge       = 0
  Multiplicity = 1
  Basis Set: AUG-CC-PVTZ
    Blend: AUG-CC-PVTZ
  Basis Set: (AUG-CC-PVTZ AUX)
    Blend: AUG-CC-PVTZ-JKFIT
  @DF-RHF Final Energy:  -551.28520067280283
    Total Energy =                       -551.2852006728028300
  Basis Set: (AUG-CC-PVTZ AUX)
    Blend: AUG-CC-PVTZ-RI
    Molecular point group: c1
  Basis Set: AUG-CC-PVTZ
    Blend: AUG-CC-PVTZ
  Basis Set: (AUG-CC-PVTZ AUX)
    Blend: AUG-CC-PVTZ-JKFIT
  Basis Set: (AUG-CC-PVTZ AUX)
    Blend: AUG-CC-PVTZ-JKFIT
	 Reference Energy          =    -551.2852006728028300 [Eh]
	 Singles Energy            =      -0.0000000000000002 [Eh]
	 Same-Spin Energy          =      -0.6052155252390434 [Eh]
	 Opposite-Spin Energy      =      -1.8310130527639827 [Eh]
	 Correlation Energy        =      -2.4362285780030266 [Eh]
	 Total Energy              =    -553.7214292508058406 [Eh]
	 SCS Total Energy          =    -553.6841548445325998 [Eh]
  @DF-RHF Final Energy:  -551.29124238156578
    Total Energy =                       -551.2912423815657803
  @DF-RHF Final Energy:  -551.29268188196340
    Total Energy =                       -551.2926818819634036
  @DF-RHF Final Energy:  -551.29274144952126
    Total Energy =                       -551.2927414495212588
  @DF-RHF Final Energy:  -551.29283368137067
    Total Energy =                       -551.2928336813706665
  @DF-RHF Final Energy:  -551.29287639537210
    Total Energy =                       -551.2928763953721045
  Charge       = 0
  Multiplicity = 1
  Basis Set: AUG-CC-PVTZ
    Blend: AUG-CC-PVTZ
  Basis Set: (AUG-CC-PVTZ AUX)
    Blend: AUG-CC-PVTZ-JKFIT

    Orbital Energies (a.u.)
    -----------------------

    Doubly Occupied:

       1A    -20.601230     2A    -15.559703     3A    -11.313133
       4A    -11.271113     5A    -11.271041     6A    -11.264744
       7A    -11.253094     8A    -11.250973     9A    -11.246412
      10A    -11.243975    11A    -11.237768    12A    -11.235056
      13A    -11.234929    14A     -1.418255    15A     -1.257280
      16A     -1.175603    17A     -1.105441    18A     -1.039194
      19A     -1.030134    20A     -1.013115    21A     -0.881963
      22A     -0.872375    23A     -0.843837    24A     -0.812811
      25A     -0.749370    26A     -0.726096    27A     -0.685065
      28A     -0.661974    29A     -0.655884    30A     -0.635930
      31A     -0.617845    32A     -0.606441    33A     -0.602730
      34A     -0.592723    35A     -0.578132    36A     -0.543971
      37A     -0.534030    38A     -0.524055    39A     -0.499620
      40A     -0.497338    41A     -0.416651    42A     -0.396630
      43A     -0.356544    44A     -0.347603    45A     -0.310550

  @DF-RHF Final Energy:  -551.29287038781126

   => Energetics <=

    Nuclear Repulsion Energy =            697.8368064817389040
    One-Electron Energy =               -2132.3146287000367920
    Two-Electron Energy =                 883.1849518304866251
    DFT Exchange-Correlation Energy =       0.0000000000000000
    Empirical Dispersion Energy =           0.0000000000000000
    PCM Polarization Energy =               0.0000000000000000
    EFP Energy =                            0.0000000000000000
    Total Energy =                       -551.2928703878112628
  Basis Set: (AUG-CC-PVTZ AUX)
    Blend: AUG-CC-PVTZ-RI
    Molecular point group: c1
  Basis Set: AUG-CC-PVTZ
    Blend: AUG-CC-PVTZ
  Basis Set: (AUG-CC-PVTZ AUX)
    Blend: AUG-CC-PVTZ-JKFIT
  Basis Set: (AUG-CC-PVTZ AUX)
    Blend: AUG-CC-PVTZ-JKFIT
	 Reference Energy          =    -551.2928703878112628 [Eh]
	 Singles Energy            =      -0.0000000000000001 [Eh]
	 Same-Spin Energy          =      -0.6040804299177542 [Eh]
	 Opposite-Spin Energy      =      -1.8283655922012341 [Eh]
	 Correlation Energy        =      -2.4324460221189881 [Eh]
	 Total Energy              =    -553.7253164099302012 [Eh]

	 ================> DF-SCS-MP2 Energies <==================
	-----------------------------------------------------------
	 SCS Same-Spin Scale       =       0.3333333333333333 [-]
	 SCS Opposite-Spin Scale   =       1.2000000000000000 [-]
	 SCS Same-Spin Energy      =      -0.2013601433059181 [Eh]
	 SCS Opposite-Spin Energy  =      -2.1940387106414807 [Eh]
	 SCS Correlation Energy    =      -2.3953988539473987 [Eh]
	 SCS Total Energy          =    -553.6882692417586895 [Eh]
	-----------------------------------------------------------

  -Total Gradient:
     Atom            X                  Y                   Z
    ------   -----------------  -----------------  -----------------
       1       -0.000022624056    -0.000006938214    -0.000007117852
       2        0.000005416639     0.000007316073    -0.000003673432
       3       -0.000708560861    -0.001253803007    -0.000117449741
       4       -0.000022104805     0.000009010066     0.000007229312
       5       -0.000002563595     0.000001859977     0.000000209300
       6       -0.000004188669    -0.000007465103     0.000001738852
       7       -0.000009657584     0.000077610715    -0.000041938131
       8       -0.000020588887    -0.000065425092     0.000065093234
       9        0.000048210211    -0.000021442618    -0.000020597938
      10       -0.000026256481     0.000025538549     0.000022074495
      11        0.000789323616     0.001503178820     0.000025635736
      12        0.000028872848    -0.000013642159    -0.000021165150
      13        0.001071034075     0.001215431130     0.000653807611
      14        0.000000092152     0.000012048368    -0.000018959454
      15        0.000006625784    -0.000011220820     0.000015922181
      16       -0.000009807339     0.000010939428    -0.000008597703
      17        0.000003953368    -0.000006840350     0.000012983144
      18       -0.000009730045    -0.000021677989    -0.000012111293
      19        0.000020564562     0.000018238043     0.000003370305
      20       -0.000012026456    -0.000031735044     0.000006531108
      21        0.000011912193     0.000032188309    -0.000008229063
      22       -0.001137896670    -0.001473169079    -0.000554755520

  **** Optimization is complete! (in 7 steps) ****
    Final optimized geometry and variables:
    Molecular point group: c1

    Geometry (in Angstrom), charge = 0, multiplicity = 1:

    C           -1.241056644271     0.775531726604    -0.549641059285
    C           -0.311805664567     0.051262370148     1.531359026308
    C           -2.313185712892     1.340893859091     0.117249566239
    C           -1.379404458820     0.618901323321     2.207891315009
    C            0.748649527431    -1.079781044467    -1.813496406294
    C            2.190164507837    -0.479112319315    -0.032203076842
    C            1.846894253071    -1.634967940390    -2.450141700141
    C            3.228621512463    -1.061518353228    -0.740728269833
    C           -0.222604507331     0.120415890654     0.142810553529
    C            0.905003319111    -0.479171477176    -0.567335676532
    C           -2.382822866147     1.268218713096     1.501425838561
    N            3.079220800465    -1.636625000811    -1.936345398053
    O           -3.455950120974     1.851309218517     2.106746770135
    H           -1.183521799191     0.863618013343    -1.624363479460
    H            0.447445627311    -0.475070086654     2.090463108936
    H           -3.098113544593     1.851063614451    -0.419018907136
    H           -1.433876668626     0.552365465501     3.285616245098
    H           -0.225479522841    -1.138186229424    -2.275149628178
    H            2.387742917318    -0.006420695394     0.918091254126
    H            1.730850289708    -2.108360083453    -3.415219456280
    H            4.230060221465    -1.059146440600    -0.333285200616
    H           -3.512333528104     1.538170465219     3.014422708707

*** Psi4 exiting successfully. Buy a developer a beer!
