                              Psi4 1.0.0 Driver

  ==> Input File <==

--------------------------------------------------------------------------

memory 1000 mb

molecule butane {
  symmetry C1
  0 1
  H      1.604   0.760   -8.260
  H      1.745   2.388   -8.880
  H      2.043   1.024   -9.930
  C      2.142   1.395   -8.932
  H      4.169   2.051   -9.210
  H      3.731   1.788   -7.539
  C      3.631   1.416   -8.537
  H      3.434   -0.688   -8.921
  H      5.006   -0.038   -9.318
  C      4.203   -0.012   -8.612
  H      5.123   -1.421   -7.278
  H      3.924   -0.404   -6.519
  H      5.496   0.246   -6.916
  C      4.726   -0.430   -7.226
  units Angstrom
}

dih_string = "4 7 10 14 240"
set optking fixed_dihedral = $dih_string

optimize('B3LYP/cc-PVDZ')
--------------------------------------------------------------------------

    Molecular point group: c1
  Charge       = 0
  Multiplicity = 1
  Basis Set: CC-PVDZ
   => B3LYP Composite Functional <=
  Basis Set:
  @DF-RKS Final Energy:  -158.44346826387422
    Total Energy =                       -158.4434682638742231
    Molecular point group: c1
  Basis Set: CC-PVDZ
  Basis Set:
   => B3LYP Composite Functional <=
  Basis Set: CC-PVDZ
   => B3LYP Composite Functional <=
  Basis Set:
  @DF-RKS Final Energy:  -158.44945019788761
    Total Energy =                       -158.4494501978876144
  Basis Set: CC-PVDZ
  Basis Set:
   => B3LYP Composite Functional <=
  Basis Set: CC-PVDZ
   => B3LYP Composite Functional <=
  Basis Set:
  @DF-RKS Final Energy:  -158.45225603233473
    Total Energy =                       -158.4522560323347307
  Basis Set: CC-PVDZ
  Basis Set:
  @DF-RKS Final Energy:  -158.45314258872310
    Total Energy =                       -158.4531425887230967
   => B3LYP Composite Functional <=
  Basis Set:
  @DF-RKS Final Energy:  -158.45334558719307
    Total Energy =                       -158.4533455871930698
  Basis Set: CC-PVDZ
  Basis Set:
   => B3LYP Composite Functional <=
  Basis Set: CC-PVDZ
   => B3LYP Composite Functional <=
  Basis Set:
  @DF-RKS Final Energy:  -158.45335373617183
    Total Energy =                       -158.4533537361718345
  Basis Set: CC-PVDZ
  Basis Set:
   => B3LYP Composite Functional <=
  Charge       = 0
  Multiplicity = 1
  Basis Set: CC-PVDZ
   => B3LYP Composite Functional <=
  Basis Set:

    Orbital Energies (a.u.)
    -----------------------

    Doubly Occupied:

       1A    -10.179964     2A    -10.179814     3A    -10.176268
       4A    -10.176264     5A     -0.788226     6A     -0.719831
       7A     -0.628224     8A     -0.571056     9A     -0.456746
      10A     -0.433110    11A     -0.418813    12A     -0.394050
      13A     -0.361798    14A     -0.361438    15A     -0.326248
      16A     -0.319563    17A     -0.314646

  @DF-RKS Final Energy:  -158.45335390869093

   => Energetics <=

    Nuclear Repulsion Energy =            130.1008737777611657
    One-Electron Energy =                -468.6995336906566081
    Two-Electron Energy =                 200.7267750191228970
    DFT Exchange-Correlation Energy =     -20.5814690149184223
    Empirical Dispersion Energy =           0.0000000000000000
    PCM Polarization Energy =               0.0000000000000000
    EFP Energy =                            0.0000000000000000
    Total Energy =                       -158.4533539086909286
    Molecular point group: c1
  Basis Set: CC-PVDZ
  Basis Set:
   => B3LYP Composite Functional <=

  -Total Gradient:
     Atom            X                  Y                   Z
    ------   -----------------  -----------------  -----------------
       1       -0.000005644948     0.000003606850    -0.000005258917
       2       -0.000007093468    -0.000003851888     0.000001832583
       3        0.000002723093     0.000005026578     0.000008219285
       4       -0.000010897540    -0.000020480322     0.000133680239
       5       -0.000006101523    -0.000005176824    -0.000002973143
       6        0.000013158146    -0.000006624851    -0.000015615160
       7       -0.000032426784     0.000027117176    -0.000155880442
       8        0.000010343560     0.000017670173    -0.000007988565
       9        0.000001270358     0.000003027221     0.000008208187
      10        0.000156810299     0.000028878168     0.000026811304
      11       -0.000002545495    -0.000000493234     0.000007880757
      12        0.000006955814    -0.000003149918     0.000003595608
      13       -0.000005898811    -0.000006465731    -0.000005971006
      14       -0.000128323939    -0.000042576385     0.000011430596

  **** Optimization is complete! (in 7 steps) ****
    Final optimized geometry and variables:
    Molecular point group: c1

    Geometry (in Angstrom), charge = 0, multiplicity = 1:

    H           -2.158498058261     0.186727370390     0.018665012734
    H           -1.983185165536     1.833743701467    -0.634912644494
    H           -1.688789777301     0.423364250796    -1.680304928860
    C           -1.556239698729     0.817431230933    -0.658029708599
    H            0.482070246579     1.485442341916    -0.922294166003
    H            0.013835258150     1.260479400081     0.757588013906
    C           -0.080066653870     0.814960374444    -0.249300599089
    H           -0.183917298582    -1.337723532606    -0.582768933125
    H            1.378212539687    -0.640629542033    -0.989794315021
    C            0.562919864853    -0.595684611540    -0.247001841420
    H            1.543144372824    -2.033577778283     1.087204758718
    H            0.308611858383    -1.026799011283     1.882746663616
    H            1.892606662744    -0.330811843445     1.470806476031
    C            1.106637101477    -1.021607705203     1.120155463753

*** Psi4 exiting successfully. Buy a developer a beer!
