                               Psi4 1.1 release

  ==> Input File <==

--------------------------------------------------------------------------

memory 5 Gb

molecule phepyrOH_neutral {
  symmetry C1
  0 1
  C      1.885   -1.036   -0.112
  C      2.878   -1.652   2.002
  C      0.807   -0.463   0.561
  C      1.800   -1.079   2.676
  C      3.952   -2.489   -1.453
  C      5.207   -2.535   0.599
  C      5.052   -3.057   -2.075
  C      6.251   -3.101   -0.116
  C      2.921   -1.631   0.608
  C      4.040   -2.225   -0.090
  C      0.764   -0.484   1.955
  N      6.203   -3.372   -1.440
  O      -0.288   0.076   2.612
  H      1.904   -1.012   -1.199
  H      3.678   -2.112   2.578
  H      0.003   -0.001   -0.006
  H      1.772   -1.098   3.762
  H      3.058   -2.260   -2.024
  H      5.312   -2.344   1.662
  H      5.035   -3.281   -3.137
  H      7.182   -3.362   0.375
  H      -0.175   -0.018   3.571
  units Angstrom
}

dih_string = "1 9 10 5 345"
set optking fixed_dihedral = $dih_string

optimize('MP2/aug-cc-PVTZ')
--------------------------------------------------------------------------

    Molecular point group: c1
  Charge       = 0
  Multiplicity = 1
  Basis Set: AUG-CC-PVTZ
    Blend: AUG-CC-PVTZ
  Basis Set: (AUG-CC-PVTZ AUX)
    Blend: AUG-CC-PVTZ-JKFIT
  @DF-RHF Final Energy:  -551.28161156675662
    Total Energy =                       -551.2816115667566237
  Basis Set: (AUG-CC-PVTZ AUX)
    Blend: AUG-CC-PVTZ-RI
    Molecular point group: c1
  Basis Set: AUG-CC-PVTZ
    Blend: AUG-CC-PVTZ
  Basis Set: (AUG-CC-PVTZ AUX)
    Blend: AUG-CC-PVTZ-JKFIT
  Basis Set: (AUG-CC-PVTZ AUX)
    Blend: AUG-CC-PVTZ-JKFIT
	 Reference Energy          =    -551.2816115667566237 [Eh]
	 Singles Energy            =      -0.0000000000000001 [Eh]
	 Same-Spin Energy          =      -0.6056739082400557 [Eh]
	 Opposite-Spin Energy      =      -1.8321616543614232 [Eh]
	 Correlation Energy        =      -2.4378355626014789 [Eh]
	 Total Energy              =    -553.7194471293580591 [Eh]
	 SCS Total Energy          =    -553.6820968547369830 [Eh]
  @DF-RHF Final Energy:  -551.28891433649278
    Total Energy =                       -551.2889143364927804
  @DF-RHF Final Energy:  -551.29120720445974
    Total Energy =                       -551.2912072044597380
  @DF-RHF Final Energy:  -551.29128704797927
    Total Energy =                       -551.2912870479792673
  @DF-RHF Final Energy:  -551.29130257773659
    Total Energy =                       -551.2913025777365874
  Charge       = 0
  Multiplicity = 1
  Basis Set: AUG-CC-PVTZ
    Blend: AUG-CC-PVTZ
  Basis Set: (AUG-CC-PVTZ AUX)
    Blend: AUG-CC-PVTZ-JKFIT

    Orbital Energies (a.u.)
    -----------------------

    Doubly Occupied:

       1A    -20.603880     2A    -15.558420     3A    -11.315125
       4A    -11.270427     5A    -11.270351     6A    -11.266999
       7A    -11.254368     8A    -11.252065     9A    -11.248054
      10A    -11.244508    11A    -11.238023    12A    -11.234468
      13A    -11.234253    14A     -1.421182    15A     -1.256761
      16A     -1.176096    17A     -1.105488    18A     -1.040568
      19A     -1.029381    20A     -1.013983    21A     -0.883838
      22A     -0.874709    23A     -0.841250    24A     -0.814153
      25A     -0.752247    26A     -0.726847    27A     -0.686992
      28A     -0.665583    29A     -0.651888    30A     -0.635076
      31A     -0.612771    32A     -0.609321    33A     -0.605410
      34A     -0.589830    35A     -0.580367    36A     -0.548234
      37A     -0.536067    38A     -0.525777    39A     -0.502674
      40A     -0.494120    41A     -0.416339    42A     -0.401484
      43A     -0.358169    44A     -0.346474    45A     -0.306306

  @DF-RHF Final Energy:  -551.29130370108396

   => Energetics <=

    Nuclear Repulsion Energy =            697.4755404109736219
    One-Electron Energy =               -2131.5330411567224473
    Two-Electron Energy =                 882.7661970446647501
    DFT Exchange-Correlation Energy =       0.0000000000000000
    Empirical Dispersion Energy =           0.0000000000000000
    PCM Polarization Energy =               0.0000000000000000
    EFP Energy =                            0.0000000000000000
    Total Energy =                       -551.2913037010839616
  Basis Set: (AUG-CC-PVTZ AUX)
    Blend: AUG-CC-PVTZ-RI
    Molecular point group: c1
  Basis Set: AUG-CC-PVTZ
    Blend: AUG-CC-PVTZ
  Basis Set: (AUG-CC-PVTZ AUX)
    Blend: AUG-CC-PVTZ-JKFIT
  Basis Set: (AUG-CC-PVTZ AUX)
    Blend: AUG-CC-PVTZ-JKFIT
	 Reference Energy          =    -551.2913037010839616 [Eh]
	 Singles Energy            =      -0.0000000000000005 [Eh]
	 Same-Spin Energy          =      -0.6042794628662969 [Eh]
	 Opposite-Spin Energy      =      -1.8290031070059205 [Eh]
	 Correlation Energy        =      -2.4332825698722176 [Eh]
	 Total Energy              =    -553.7245862709561379 [Eh]

	 ================> DF-SCS-MP2 Energies <==================
	-----------------------------------------------------------
	 SCS Same-Spin Scale       =       0.3333333333333333 [-]
	 SCS Opposite-Spin Scale   =       1.2000000000000000 [-]
	 SCS Same-Spin Energy      =      -0.2014264876220989 [Eh]
	 SCS Opposite-Spin Energy  =      -2.1948037284071047 [Eh]
	 SCS Correlation Energy    =      -2.3962302160292039 [Eh]
	 SCS Total Energy          =    -553.6875339171131145 [Eh]
	-----------------------------------------------------------

  -Total Gradient:
     Atom            X                  Y                   Z
    ------   -----------------  -----------------  -----------------
       1       -0.001073902878    -0.002030230791    -0.000017726341
       2       -0.000003395297    -0.000014968678     0.000011003937
       3       -0.000025824680     0.000032158413     0.000039098452
       4        0.000014101951    -0.000018728603    -0.000010124581
       5        0.000841898483     0.002104426428    -0.000461242414
       6       -0.000005933914    -0.000004769046     0.000005758853
       7       -0.000019971450    -0.000068396815     0.000019015081
       8        0.000036297848     0.000057728093    -0.000028034435
       9        0.002127922814     0.004043459412    -0.000209266879
      10       -0.001867793155    -0.004125672049     0.000730427235
      11       -0.000019981195     0.000031408039     0.000000452786
      12        0.000002650724    -0.000007914493     0.000008115725
      13        0.000007832243    -0.000013555254    -0.000005795020
      14       -0.000011248045    -0.000004425360    -0.000008778769
      15       -0.000029809220     0.000016063534    -0.000003597542
      16        0.000014634526    -0.000014245418    -0.000009953019
      17       -0.000000048598     0.000002791240    -0.000009749698
      18       -0.000002102549     0.000014592222    -0.000007192454
      19        0.000014351109    -0.000013081813    -0.000029136104
      20        0.000004483236     0.000034912907    -0.000004374164
      21       -0.000012344139    -0.000016292786     0.000009727106
      22        0.000008182188    -0.000005259180    -0.000018627744

  **** Optimization is complete! (in 6 steps) ****
    Final optimized geometry and variables:
    Molecular point group: c1

    Geometry (in Angstrom), charge = 0, multiplicity = 1:

    C           -1.265248251330     0.743937432900    -0.544460346894
    C           -0.300017458002     0.092145598473     1.536450488049
    C           -2.338083417220     1.308839913304     0.120225479824
    C           -1.370258550189     0.654317088444     2.212185691979
    C            0.847924705831    -0.783747362969    -1.925889210699
    C            2.108684265957    -0.783842910265     0.071445600247
    C            1.942002859606    -1.349658451642    -2.559562874589
    C            3.151164451756    -1.351093825190    -0.642654200622
    C           -0.217043834948     0.131275900465     0.145085709689
    C            0.903964074323    -0.489875975939    -0.564778872852
    C           -2.394850904465     1.268703784403     1.505924417257
    N            3.090360444138    -1.640085856850    -1.944357459623
    O           -3.473892802421     1.840902893673     2.106386161185
    H           -1.236859820372     0.812757610581    -1.620402870524
    H            0.464645328439    -0.406633814646     2.110764556196
    H           -3.136607366338     1.790469600407    -0.422281918740
    H           -1.411394027892     0.605315879450     3.291568313291
    H           -0.048765733781    -0.604767295332    -2.497625855328
    H            2.256926409293    -0.555866284538     1.115125465279
    H            1.891984960160    -1.582602919410    -3.614182780893
    H            4.083874352857    -1.578008554670    -0.145056678859
    H           -3.388481012991     1.746701351924     3.059944548800

*** Psi4 exiting successfully. Buy a developer a beer!
