                               Psi4 1.1 release

  ==> Input File <==

--------------------------------------------------------------------------

memory 5000 mb

molecule butane {
  symmetry C1
  0 1
  H      1.626   2.178   -8.417
  H      2.051   1.542   -9.989
  H      1.716   0.451   -8.666
  C      2.142   1.395   -8.932
  H      4.169   2.051   -9.210
  H      3.731   1.788   -7.539
  C      3.631   1.416   -8.537
  H      3.665   -0.647   -7.940
  H      4.104   -0.384   -9.610
  C      4.203   -0.012   -8.612
  H      6.088   -0.983   -8.270
  H      5.791   0.381   -7.220
  H      6.230   0.644   -8.890
  C      5.691   0.009   -8.218
  units Angstrom
}

dih_string = "10 7 4 3 30"
set optking fixed_dihedral = $dih_string

optimize('MP2/aug-cc-pvtz')
--------------------------------------------------------------------------

    Molecular point group: c1
  Charge       = 0
  Multiplicity = 1
  Basis Set: AUG-CC-PVTZ
    Blend: AUG-CC-PVTZ
  Basis Set: (AUG-CC-PVTZ AUX)
    Blend: AUG-CC-PVTZ-JKFIT
  @DF-RHF Final Energy:  -157.35002251798997
    Total Energy =                       -157.3500225179899701
  Basis Set: (AUG-CC-PVTZ AUX)
    Blend: AUG-CC-PVTZ-RI
    Molecular point group: c1
  Basis Set: AUG-CC-PVTZ
    Blend: AUG-CC-PVTZ
  Basis Set: (AUG-CC-PVTZ AUX)
    Blend: AUG-CC-PVTZ-JKFIT
  Basis Set: (AUG-CC-PVTZ AUX)
    Blend: AUG-CC-PVTZ-JKFIT
	 Reference Energy          =    -157.3500225179899701 [Eh]
	 Singles Energy            =      -0.0000000000000000 [Eh]
	 Same-Spin Energy          =      -0.1654320683651321 [Eh]
	 Opposite-Spin Energy      =      -0.6391175834300757 [Eh]
	 Correlation Energy        =      -0.8045496517952079 [Eh]
	 Total Energy              =    -158.1545721697851832 [Eh]
	 SCS Total Energy          =    -158.1721076408944384 [Eh]
  @DF-RHF Final Energy:  -157.35277690051595
    Total Energy =                       -157.3527769005159485
  @DF-RHF Final Energy:  -157.35364601125491
    Total Energy =                       -157.3536460112549094
  @DF-RHF Final Energy:  -157.35396889247912
    Total Energy =                       -157.3539688924791164
  @DF-RHF Final Energy:  -157.35401156873425
    Total Energy =                       -157.3540115687342507
  Charge       = 0
  Multiplicity = 1
  Basis Set: AUG-CC-PVTZ
    Blend: AUG-CC-PVTZ
  Basis Set: (AUG-CC-PVTZ AUX)
    Blend: AUG-CC-PVTZ-JKFIT

    Orbital Energies (a.u.)
    -----------------------

    Doubly Occupied:

       1A    -11.211594     2A    -11.210837     3A    -11.206003
       4A    -11.205767     5A     -1.073763     6A     -0.981368
       7A     -0.861410     8A     -0.788583     9A     -0.639775
      10A     -0.585625    11A     -0.578042    12A     -0.567808
      13A     -0.513804    14A     -0.494504    15A     -0.470554
      16A     -0.459195    17A     -0.456372

  @DF-RHF Final Energy:  -157.35401556983095

   => Energetics <=

    Nuclear Repulsion Energy =            131.4511438190046420
    One-Electron Energy =                -471.0003141522099099
    Two-Electron Energy =                 182.1951547633743189
    DFT Exchange-Correlation Energy =       0.0000000000000000
    Empirical Dispersion Energy =           0.0000000000000000
    PCM Polarization Energy =               0.0000000000000000
    EFP Energy =                            0.0000000000000000
    Total Energy =                       -157.3540155698309491
  Basis Set: (AUG-CC-PVTZ AUX)
    Blend: AUG-CC-PVTZ-RI
    Molecular point group: c1
  Basis Set: AUG-CC-PVTZ
    Blend: AUG-CC-PVTZ
  Basis Set: (AUG-CC-PVTZ AUX)
    Blend: AUG-CC-PVTZ-JKFIT
  Basis Set: (AUG-CC-PVTZ AUX)
    Blend: AUG-CC-PVTZ-JKFIT
	 Reference Energy          =    -157.3540155698309491 [Eh]
	 Singles Energy            =      -0.0000000000000000 [Eh]
	 Same-Spin Energy          =      -0.1654706186711125 [Eh]
	 Opposite-Spin Energy      =      -0.6395331104091930 [Eh]
	 Correlation Energy        =      -0.8050037290803055 [Eh]
	 Total Energy              =    -158.1590192989112609 [Eh]

	 ================> DF-SCS-MP2 Energies <==================
	-----------------------------------------------------------
	 SCS Same-Spin Scale       =       0.3333333333333333 [-]
	 SCS Opposite-Spin Scale   =       1.2000000000000000 [-]
	 SCS Same-Spin Energy      =      -0.0551568728903708 [Eh]
	 SCS Opposite-Spin Energy  =      -0.7674397324910316 [Eh]
	 SCS Correlation Energy    =      -0.8225966053814024 [Eh]
	 SCS Total Energy          =    -158.1766121752123411 [Eh]
	-----------------------------------------------------------

  -Total Gradient:
     Atom            X                  Y                   Z
    ------   -----------------  -----------------  -----------------
       1       -0.000013912889    -0.000012286324     0.000019428913
       2        0.000008789679     0.000007960145     0.000050872784
       3        0.000810260850    -0.001192050215    -0.003019418824
       4       -0.001229737538     0.001349811484     0.004625335958
       5        0.000022505304    -0.000010742472     0.000004957933
       6       -0.000003032173     0.000023659181    -0.000037934556
       7        0.001049800307     0.000218214117    -0.003960506287
       8        0.000015240544    -0.000002159915    -0.000030609274
       9       -0.000022066709    -0.000006119795     0.000015098467
      10       -0.000613143143    -0.000380125043     0.002307678810
      11        0.000003076611     0.000008364084     0.000000738676
      12        0.000015248467    -0.000000689229    -0.000012603680
      13       -0.000004254627    -0.000000462906     0.000001435912
      14       -0.000038774684    -0.000003373110     0.000035525166

  **** Optimization is complete! (in 6 steps) ****
    Final optimized geometry and variables:
    Molecular point group: c1

    Geometry (in Angstrom), charge = 0, multiplicity = 1:

    H           -2.323065582593     1.519409949801     0.114633831594
    H           -1.873861015789     0.829915052837    -1.436941849876
    H           -2.252393529552    -0.233784516015    -0.109900759830
    C           -1.773514746411     0.711308579499    -0.359829016526
    H            0.269067913885     1.371983927197    -0.585633074833
    H           -0.199020434368     1.060843367726     1.066359098563
    C           -0.304827982321     0.692531139533     0.044874870971
    H           -0.247788441465    -1.349106614759     0.658597345326
    H            0.162292972287    -1.104084915019    -1.023094627206
    C            0.302219719846    -0.696207973070    -0.020246514199
    H            2.191131690610    -1.710990351350     0.302199887091
    H            1.930355835639    -0.314266194124     1.341032313987
    H            2.343998408255    -0.084182316740    -0.351909468494
    C            1.776062722732    -0.706433894642     0.337271513743

*** Psi4 exiting successfully. Buy a developer a beer!
