                               Psi4 1.1 release

  ==> Input File <==

--------------------------------------------------------------------------

memory 5 Gb

molecule phepyrFOH_neutral {
  symmetry C1
  0 1
  C      1.885   -1.036   -0.112
  C      0.807   -0.463   0.561
  C      3.825   -3.269   -0.988
  C      5.328   -1.753   0.119
  C      1.800   -1.079   2.676
  C      4.927   -3.802   -1.637
  C      6.363   -2.354   -0.579
  C      2.921   -1.631   0.608
  C      4.038   -2.225   -0.095
  C      0.764   -0.484   1.955
  C      2.878   -1.652   2.002
  N      6.195   -3.370   -1.455
  O      -0.289   0.076   2.612
  F      3.866   -2.220   2.709
  H      1.904   -1.012   -1.199
  H      0.002   -0.002   -0.006
  H      2.833   -3.663   -1.183
  H      5.532   -0.940   0.809
  H      1.772   -1.099   3.762
  H      4.814   -4.616   -2.345
  H      7.387   -2.023   -0.446
  H      -1.070   -0.496   2.543
  units Angstrom
}

dih_string = "2 10 13 22 75"
set optking fixed_dihedral = $dih_string

optimize('MP2/aug-cc-PVTZ')
--------------------------------------------------------------------------

    Molecular point group: c1
  Charge       = 0
  Multiplicity = 1
  Basis Set: AUG-CC-PVTZ
    Blend: AUG-CC-PVTZ
  Basis Set: (AUG-CC-PVTZ AUX)
    Blend: AUG-CC-PVTZ-JKFIT
  @DF-RHF Final Energy:  -650.16987149237127
    Total Energy =                       -650.1698714923711577
  Basis Set: (AUG-CC-PVTZ AUX)
    Blend: AUG-CC-PVTZ-RI
    Molecular point group: c1
  Basis Set: AUG-CC-PVTZ
    Blend: AUG-CC-PVTZ
  Basis Set: (AUG-CC-PVTZ AUX)
    Blend: AUG-CC-PVTZ-JKFIT
  Basis Set: (AUG-CC-PVTZ AUX)
    Blend: AUG-CC-PVTZ-JKFIT
	 Reference Energy          =    -650.1698714923712714 [Eh]
	 Singles Energy            =      -0.0000000000000003 [Eh]
	 Same-Spin Energy          =      -0.6770673293275042 [Eh]
	 Opposite-Spin Energy      =      -2.0187622473068849 [Eh]
	 Correlation Energy        =      -2.6958295766343894 [Eh]
	 Total Energy              =    -652.8657010690056950 [Eh]
	 SCS Total Energy          =    -652.8180752989153461 [Eh]
  @DF-RHF Final Energy:  -650.17583037422753
    Total Energy =                       -650.1758303742274165
  @DF-RHF Final Energy:  -650.17734464055513
    Total Energy =                       -650.1773446405550203
  @DF-RHF Final Energy:  -650.17741729004854
    Total Energy =                       -650.1774172900486519
    Molecular point group: c1
  Charge       = 0
  Multiplicity = 1
  Basis Set: AUG-CC-PVTZ
    Blend: AUG-CC-PVTZ
  Basis Set: (AUG-CC-PVTZ AUX)
    Blend: AUG-CC-PVTZ-JKFIT

    Orbital Energies (a.u.)
    -----------------------

    Doubly Occupied:

       1A    -26.320390     2A    -20.596959     3A    -15.564520
       4A    -11.343879     5A    -11.318697     6A    -11.274130
       7A    -11.273076     8A    -11.269641     9A    -11.263013
      10A    -11.259779    11A    -11.248860    12A    -11.246969
      13A    -11.240760    14A    -11.239177    15A     -1.638913
      16A     -1.411345    17A     -1.260862    18A     -1.185950
      19A     -1.113289    20A     -1.043858    21A     -1.036011
      22A     -1.023739    23A     -0.889637    24A     -0.877256
      25A     -0.854819    26A     -0.829817    27A     -0.771780
      28A     -0.734001    29A     -0.726221    30A     -0.707622
      31A     -0.697336    32A     -0.667131    33A     -0.664224
      34A     -0.652184    35A     -0.633758    36A     -0.625910
      37A     -0.605281    38A     -0.598636    39A     -0.562230
      40A     -0.544977    41A     -0.542478    42A     -0.523974
      43A     -0.512964    44A     -0.499340    45A     -0.419748
      46A     -0.398482    47A     -0.360169    48A     -0.349606
      49A     -0.334268

  @DF-RHF Final Energy:  -650.17735202072174

   => Energetics <=

    Nuclear Repulsion Energy =            813.3362223290953352
    One-Electron Energy =               -2501.5118084458399608
    Two-Electron Energy =                1037.9982340960227702
    DFT Exchange-Correlation Energy =       0.0000000000000000
    Empirical Dispersion Energy =           0.0000000000000000
    PCM Polarization Energy =               0.0000000000000000
    EFP Energy =                            0.0000000000000000
    Total Energy =                       -650.1773520207218553
  Basis Set: (AUG-CC-PVTZ AUX)
    Blend: AUG-CC-PVTZ-RI
    Molecular point group: c1

    Geometry (in Angstrom), charge = 0, multiplicity = 1:

       Center              X                  Y                   Z               Mass
    ------------   -----------------  -----------------  -----------------  -----------------
           C         -1.360572262675     0.674444693983    -0.766308658502    12.000000000000
           C         -2.442457521777     1.247042616341    -0.118253201028    12.000000000000
           C          0.655695976186    -1.442358323872    -1.721736487829    12.000000000000
           C          2.164619824698    -0.047349570915    -0.530213091154    12.000000000000
           C         -1.412227030383     0.762548797865     1.999263860463    12.000000000000
           C          1.748834165349    -1.969732667416    -2.392027868468    12.000000000000
           C          3.193591172237    -0.634104238191    -1.249595217347    12.000000000000
           C         -0.280533365565     0.144309480745    -0.062186829692    12.000000000000
           C          0.855433174582    -0.453775977663    -0.764392373810    12.000000000000
           C         -2.471759387670     1.276769265320     1.268508561477    12.000000000000
           C         -0.343335292659     0.211994237759     1.323586578192    12.000000000000
           N          3.006647352897    -1.582849138761    -2.171042404651    14.003074004780
           O         -3.502361316859     1.893200578645     1.944990446298    15.994914619560
           F          0.667573074846    -0.298120707217     2.051741144662    18.998403224000
           H         -1.330180250443     0.650327239064    -1.845865572251     1.007825032070
           H         -3.257836068955     1.680735241345    -0.675702547602     1.007825032070
           H         -0.340830909495    -1.799485016577    -1.935945396661     1.007825032070
           H          2.376804602992     0.718242181370     0.200592970753     1.007825032070
           H         -1.421938329312     0.790144432750     3.076486342623     1.007825032070
           H          1.608074464163    -2.741082644165    -3.136684357095     1.007825032070
           H          4.215935080213    -0.326265791404    -1.080891244893     1.007825032070
           H         -4.283616728073     1.334510736845     1.897166506485     1.007825032070

  Basis Set: AUG-CC-PVTZ
    Blend: AUG-CC-PVTZ
  Basis Set: (AUG-CC-PVTZ AUX)
    Blend: AUG-CC-PVTZ-JKFIT
  Basis Set: (AUG-CC-PVTZ AUX)
    Blend: AUG-CC-PVTZ-JKFIT
	 Reference Energy          =    -650.1773520207217416 [Eh]
	 Singles Energy            =      -0.0000000000000006 [Eh]
	 Same-Spin Energy          =      -0.6762503816134048 [Eh]
	 Opposite-Spin Energy      =      -2.0166740557000780 [Eh]
	 Correlation Energy        =      -2.6929244373134833 [Eh]
	 Total Energy              =    -652.8702764580352778 [Eh]

	 ================> DF-SCS-MP2 Energies <==================
	-----------------------------------------------------------
	 SCS Same-Spin Scale       =       0.3333333333333333 [-]
	 SCS Opposite-Spin Scale   =       1.2000000000000000 [-]
	 SCS Same-Spin Energy      =      -0.2254167938711349 [Eh]
	 SCS Opposite-Spin Energy  =      -2.4200088668400936 [Eh]
	 SCS Correlation Energy    =      -2.6454256607112292 [Eh]
	 SCS Total Energy          =    -652.8227776814329673 [Eh]
	-----------------------------------------------------------

  -Total Gradient:
     Atom            X                  Y                   Z
    ------   -----------------  -----------------  -----------------
       1        0.000378239469     0.001136881723     0.000178503516
       2        0.000597641341     0.001120125812    -0.000131725853
       3        0.000002139669    -0.000943839825     0.000808771394
       4        0.000379023279     0.000747208862    -0.001313337047
       5        0.000181142708    -0.000338961091     0.000533851824
       6        0.000377123618    -0.000081001514    -0.000060263336
       7        0.000226852622     0.000013397732     0.000049115627
       8        0.000015309454    -0.000139658947    -0.000541950555
       9       -0.000116315684     0.000228935371    -0.000024670244
      10       -0.000511274146    -0.001689676590    -0.000363856282
      11       -0.000850232978    -0.000834607297     0.000083834664
      12       -0.000205863648    -0.000156791752    -0.000122056541
      13       -0.000438860340     0.001924501554    -0.001444022094
      14        0.000129820442    -0.000255816173     0.000980511223
      15        0.000022009347    -0.000161877293    -0.000243194892
      16       -0.000130387738     0.000043939649    -0.000026541851
      17       -0.000216266097     0.000123166985    -0.000147848487
      18       -0.000021691085     0.000305565577     0.000229070842
      19        0.000027519653     0.000094199051     0.000129566735
      20       -0.000137251166    -0.000160128734    -0.000132077318
      21        0.000047921268     0.000097536964     0.000099150430
      22        0.000243400019    -0.001073100075     0.001459168259

*** Psi4 exiting successfully. Buy a developer a beer!
