                               Psi4 1.1 release

  ==> Input File <==

--------------------------------------------------------------------------

memory 5 Gb

molecule phepyrOH_anion {
  symmetry C1
  -1 1
  C      1.885   -1.036   -0.112
  C      2.878   -1.652   2.002
  C      0.807   -0.463   0.561
  C      1.800   -1.079   2.676
  C      4.324   -3.577   0.070
  C      4.834   -1.448   -0.925
  C      5.405   -4.099   -0.622
  C      5.893   -2.065   -1.572
  C      2.921   -1.631   0.608
  C      4.040   -2.226   -0.090
  C      0.764   -0.484   1.955
  N      6.200   -3.375   -1.442
  O      -0.227   0.042   2.574
  H      1.904   -1.011   -1.199
  H      3.678   -2.112   2.577
  H      0.011   -0.006   -0.025
  H      1.791   -1.108   3.764
  H      3.726   -4.216   0.712
  H      4.643   -0.390   -1.074
  H      5.668   -5.148   -0.532
  H      6.543   -1.503   -2.234
  units Angstrom
}

dih_string = "1 9 10 5 240"
set optking fixed_dihedral = $dih_string

optimize('MP2/aug-cc-PVTZ')
--------------------------------------------------------------------------

    Molecular point group: c1
  Charge       = -1
  Multiplicity = 1
  Basis Set: AUG-CC-PVTZ
    Blend: AUG-CC-PVTZ
  Basis Set: (AUG-CC-PVTZ AUX)
    Blend: AUG-CC-PVTZ-JKFIT
  @DF-RHF Final Energy:  -550.71176184122316
    Total Energy =                       -550.7117618412231650
  Basis Set: (AUG-CC-PVTZ AUX)
    Blend: AUG-CC-PVTZ-RI
    Molecular point group: c1
  Basis Set: AUG-CC-PVTZ
    Blend: AUG-CC-PVTZ
  Basis Set: (AUG-CC-PVTZ AUX)
    Blend: AUG-CC-PVTZ-JKFIT
  Basis Set: (AUG-CC-PVTZ AUX)
    Blend: AUG-CC-PVTZ-JKFIT
	 Reference Energy          =    -550.7117618412231650 [Eh]
	 Singles Energy            =      -0.0000000000000002 [Eh]
	 Same-Spin Energy          =      -0.6134619947670884 [Eh]
	 Opposite-Spin Energy      =      -1.8375433709470950 [Eh]
	 Correlation Energy        =      -2.4510053657141833 [Eh]
	 Total Energy              =    -553.1627672069373602 [Eh]
	 SCS Total Energy          =    -553.1213012179487123 [Eh]
  @DF-RHF Final Energy:  -550.71822258369252
    Total Energy =                       -550.7182225836925227
  @DF-RHF Final Energy:  -550.72215430738061
    Total Energy =                       -550.7221543073806060
  @DF-RHF Final Energy:  -550.72359393643342
    Total Energy =                       -550.7235939364334172
  @DF-RHF Final Energy:  -550.72396027999946
    Total Energy =                       -550.7239602799994600
  @DF-RHF Final Energy:  -550.72415121427252
    Total Energy =                       -550.7241512142725242
  @DF-RHF Final Energy:  -550.72426817855160
    Total Energy =                       -550.7242681785515970
  @DF-RHF Final Energy:  -550.72429492090316
    Total Energy =                       -550.7242949209031622
  @DF-RHF Final Energy:  -550.72427604822974
    Total Energy =                       -550.7242760482297399
  @DF-RHF Final Energy:  -550.72424557892839
    Total Energy =                       -550.7242455789283895
  @DF-RHF Final Energy:  -550.72392871990462
    Total Energy =                       -550.7239287199046203
  @DF-RHF Final Energy:  -550.72414338448334
    Total Energy =                       -550.7241433844833409
  @DF-RHF Final Energy:  -550.72418917790571
    Total Energy =                       -550.7241891779057141
  @DF-RHF Final Energy:  -550.72417392331829
    Total Energy =                       -550.7241739233182898
  @DF-RHF Final Energy:  -550.72416791131525
    Total Energy =                       -550.7241679113152486
  @DF-RHF Final Energy:  -550.72417045116197
    Total Energy =                       -550.7241704511619673
  @DF-RHF Final Energy:  -550.72416739983794
    Total Energy =                       -550.7241673998379383
  @DF-RHF Final Energy:  -550.72416198185317
    Total Energy =                       -550.7241619818531717
  @DF-RHF Final Energy:  -550.72416790037005
    Total Energy =                       -550.7241679003700483
  @DF-RHF Final Energy:  -550.72390375698615
    Total Energy =                       -550.7239037569861466
  @DF-RHF Final Energy:  -550.72412779120702
    Total Energy =                       -550.7241277912070245
  @DF-RHF Final Energy:  -550.72416760059002
    Total Energy =                       -550.7241676005900217
  @DF-RHF Final Energy:  -550.72413322256330
    Total Energy =                       -550.7241332225632959
  @DF-RHF Final Energy:  -550.72413469866797
    Total Energy =                       -550.7241346986679673
  @DF-RHF Final Energy:  -550.72391656077343
    Total Energy =                       -550.7239165607734321
  @DF-RHF Final Energy:  -550.72411758318526
    Total Energy =                       -550.7241175831852615
  @DF-RHF Final Energy:  -550.72409307129169
    Total Energy =                       -550.7240930712916906
  @DF-RHF Final Energy:  -550.72409525377407
    Total Energy =                       -550.7240952537740668
  Charge       = -1
  Multiplicity = 1
  Basis Set: AUG-CC-PVTZ
    Blend: AUG-CC-PVTZ
  Basis Set: (AUG-CC-PVTZ AUX)
    Blend: AUG-CC-PVTZ-JKFIT

    Orbital Energies (a.u.)
    -----------------------

    Doubly Occupied:

       1A    -20.311806     2A    -15.453435     3A    -11.166537
       4A    -11.166387     5A    -11.146690     6A    -11.127276
       7A    -11.120705     8A    -11.120306     9A    -11.098187
      10A    -11.097161    11A    -11.074339    12A    -11.058991
      13A    -11.058460    14A     -1.148939    15A     -1.142432
      16A     -1.016464    17A     -0.957939    18A     -0.923238
      19A     -0.863849    20A     -0.836792    21A     -0.746492
      22A     -0.735268    23A     -0.673806    24A     -0.649118
      25A     -0.595501    26A     -0.554250    27A     -0.540572
      28A     -0.511648    29A     -0.488123    30A     -0.484227
      31A     -0.480382    32A     -0.434318    33A     -0.432178
      34A     -0.417308    35A     -0.404603    36A     -0.374917
      37A     -0.370042    38A     -0.347710    39A     -0.312897
      40A     -0.304938    41A     -0.253823    42A     -0.241747
      43A     -0.219597    44A     -0.198138    45A     -0.107235

  @DF-RHF Final Energy:  -550.72409595985494

   => Energetics <=

    Nuclear Repulsion Energy =            682.3746172051679650
    One-Electron Energy =               -2114.6598841179020383
    Two-Electron Energy =                 881.5611709528792517
    DFT Exchange-Correlation Energy =       0.0000000000000000
    Empirical Dispersion Energy =           0.0000000000000000
    PCM Polarization Energy =               0.0000000000000000
    EFP Energy =                            0.0000000000000000
    Total Energy =                       -550.7240959598549352
  Basis Set: (AUG-CC-PVTZ AUX)
    Blend: AUG-CC-PVTZ-RI
    Molecular point group: c1
  Basis Set: AUG-CC-PVTZ
    Blend: AUG-CC-PVTZ
  Basis Set: (AUG-CC-PVTZ AUX)
    Blend: AUG-CC-PVTZ-JKFIT
  Basis Set: (AUG-CC-PVTZ AUX)
    Blend: AUG-CC-PVTZ-JKFIT
	 Reference Energy          =    -550.7240959598549352 [Eh]
	 Singles Energy            =      -0.0000000000000001 [Eh]
	 Same-Spin Energy          =      -0.6125127570365273 [Eh]
	 Opposite-Spin Energy      =      -1.8363624130592606 [Eh]
	 Correlation Energy        =      -2.4488751700957878 [Eh]
	 Total Energy              =    -553.1729711299507244 [Eh]

	 ================> DF-SCS-MP2 Energies <==================
	-----------------------------------------------------------
	 SCS Same-Spin Scale       =       0.3333333333333333 [-]
	 SCS Opposite-Spin Scale   =       1.2000000000000000 [-]
	 SCS Same-Spin Energy      =      -0.2041709190121758 [Eh]
	 SCS Opposite-Spin Energy  =      -2.2036348956711125 [Eh]
	 SCS Correlation Energy    =      -2.4078058146832881 [Eh]
	 SCS Total Energy          =    -553.1319017745382780 [Eh]
	-----------------------------------------------------------

  -Total Gradient:
     Atom            X                  Y                   Z
    ------   -----------------  -----------------  -----------------
       1       -0.003650514299    -0.006114605131     0.000080937401
       2       -0.000087381210     0.000116493558     0.000004000428
       3       -0.000052025948    -0.000122362197    -0.000029899180
       4       -0.000053701529    -0.000126265554    -0.000014767097
       5       -0.004298704061    -0.001642131953    -0.005564718666
       6        0.000108775258    -0.000062913226     0.000006571829
       7       -0.000174293824    -0.000068343103    -0.000165654833
       8       -0.000108963165    -0.000036811984    -0.000118064575
       9        0.003380377920     0.008518925575    -0.002922465318
      10        0.004912571784    -0.000468477445     0.008679033023
      11        0.000043595106     0.000070994326     0.000000003220
      12        0.000093536906     0.000044410450     0.000100543753
      13       -0.000009411153     0.000008902478     0.000007932596
      14       -0.000043812008    -0.000080892248    -0.000009970704
      15       -0.000041489447    -0.000079717867    -0.000016035911
      16        0.000016225242     0.000027286539     0.000005678278
      17        0.000015725549     0.000028246705     0.000002851499
      18       -0.000055719166    -0.000020421546    -0.000067978917
      19       -0.000065508826    -0.000027793257    -0.000067576365
      20        0.000046128945     0.000024963556     0.000051921106
      21        0.000024587926     0.000010512322     0.000037658428

  **** Optimization is complete! (in 29 steps) ****
    Final optimized geometry and variables:
    Molecular point group: c1

    Geometry (in Angstrom), charge = -1, multiplicity = 1:

    C           -1.176777507306     0.866393414673    -0.513465515677
    C           -0.331126293407     0.094991174827     1.582179435345
    C           -2.309902854112     1.341157854851     0.112988412876
    C           -1.448872695800     0.586555388847     2.222590771896
    C            1.266081942612    -1.737825909868    -0.317245406932
    C            1.710082884225     0.273747483555    -1.469163194398
    C            2.278517269479    -2.327698975069    -1.054558950827
    C            2.694118076357    -0.400485574468    -2.171749817510
    C           -0.137615183353     0.256321754709     0.203159341231
    C            0.965246622814    -0.382325312858    -0.484302480380
    C           -2.516215959957     1.251302983524     1.530242167010
    N            3.003802009932    -1.688530169276    -1.980776119655
    O           -3.544767521807     1.702892319872     2.112161731484
    H           -1.091691710629     0.944774138615    -1.591463895589
    H            0.437283787585    -0.404250418255     2.161861133588
    H           -3.100900348710     1.794062649623    -0.469880431986
    H           -1.551634351393     0.479733756079     3.294382549983
    H            0.696821576141    -2.324381876419     0.388838837776
    H            1.520182041382     1.318197324477    -1.669807734996
    H            2.508878821693    -3.375878325208    -0.911774919580
    H            3.273349333087     0.120452111114    -2.923673723181

*** Psi4 exiting successfully. Buy a developer a beer!
