                               Psi4 1.1 release

  ==> Input File <==

--------------------------------------------------------------------------

memory 5 Gb

molecule phepyrOH_cation {
  symmetry C1
  1 1
  C      1.885   -1.036   -0.112
  C      2.878   -1.652   2.002
  C      0.807   -0.463   0.561
  C      1.800   -1.079   2.676
  C      4.640   -1.549   -1.148
  C      4.517   -3.475   0.294
  C      5.711   -2.143   -1.800
  C      5.591   -4.020   -0.394
  C      2.921   -1.631   0.608
  C      4.040   -2.225   -0.090
  C      0.764   -0.484   1.955
  N      6.150   -3.347   -1.409
  O      -0.288   0.076   2.612
  H      1.904   -1.012   -1.199
  H      3.678   -2.112   2.578
  H      0.003   -0.001   -0.006
  H      1.772   -1.098   3.762
  H      4.288   -0.573   -1.469
  H      4.068   -4.025   1.116
  H      6.237   -1.692   -2.629
  H      6.028   -4.983   -0.165
  H      6.938   -3.767   -1.902
  H      -0.175   -0.018   3.571
  units Angstrom
}

dih_string = "1 9 10 5 45"
set optking fixed_dihedral = $dih_string

optimize('MP2/aug-cc-PVTZ')
--------------------------------------------------------------------------

    Molecular point group: c1
  Charge       = 1
  Multiplicity = 1
  Basis Set: AUG-CC-PVTZ
    Blend: AUG-CC-PVTZ
  Basis Set: (AUG-CC-PVTZ AUX)
    Blend: AUG-CC-PVTZ-JKFIT
  @DF-RHF Final Energy:  -551.67578844326329
    Total Energy =                       -551.6757884432632864
  Basis Set: (AUG-CC-PVTZ AUX)
    Blend: AUG-CC-PVTZ-RI
    Molecular point group: c1
  Basis Set: AUG-CC-PVTZ
    Blend: AUG-CC-PVTZ
  Basis Set: (AUG-CC-PVTZ AUX)
    Blend: AUG-CC-PVTZ-JKFIT
  Basis Set: (AUG-CC-PVTZ AUX)
    Blend: AUG-CC-PVTZ-JKFIT
	 Reference Energy          =    -551.6757884432632864 [Eh]
	 Singles Energy            =      -0.0000000000000002 [Eh]
	 Same-Spin Energy          =      -0.5963895301492855 [Eh]
	 Opposite-Spin Energy      =      -1.8251052350278900 [Eh]
	 Correlation Energy        =      -2.4214947651771754 [Eh]
	 Total Energy              =    -554.0972832084404445 [Eh]
	 SCS Total Energy          =    -554.0647112353465218 [Eh]
  @DF-RHF Final Energy:  -551.68047929841111
    Total Energy =                       -551.6804792984111145
  @DF-RHF Final Energy:  -551.68150708847134
    Total Energy =                       -551.6815070884713350
  @DF-RHF Final Energy:  -551.68156783038592
    Total Energy =                       -551.6815678303859158
  @DF-RHF Final Energy:  -551.68156212329723
    Total Energy =                       -551.6815621232972262
  @DF-RHF Final Energy:  -551.68156857563122
    Total Energy =                       -551.6815685756312178
  Charge       = 1
  Multiplicity = 1
  Basis Set: AUG-CC-PVTZ
    Blend: AUG-CC-PVTZ
  Basis Set: (AUG-CC-PVTZ AUX)
    Blend: AUG-CC-PVTZ-JKFIT

    Orbital Energies (a.u.)
    -----------------------

    Doubly Occupied:

       1A    -20.705199     2A    -15.830895     3A    -11.481459
       4A    -11.481044     5A    -11.448775     6A    -11.431382
       7A    -11.410938     8A    -11.410774     9A    -11.377194
      10A    -11.374164    11A    -11.370358    12A    -11.353949
      13A    -11.347060    14A     -1.528169    15A     -1.508875
      16A     -1.318427    17A     -1.265820    18A     -1.239209
      19A     -1.156004    20A     -1.153695    21A     -1.063530
      22A     -1.057428    23A     -0.978207    24A     -0.962867
      25A     -0.952114    26A     -0.871913    27A     -0.861316
      28A     -0.855343    29A     -0.819659    30A     -0.801146
      31A     -0.786539    32A     -0.772219    33A     -0.755790
      34A     -0.730696    35A     -0.722118    36A     -0.709558
      37A     -0.704079    38A     -0.687372    39A     -0.659084
      40A     -0.631117    41A     -0.617611    42A     -0.570128
      43A     -0.539753    44A     -0.472086    45A     -0.435865

  @DF-RHF Final Energy:  -551.68156785053611

   => Energetics <=

    Nuclear Repulsion Energy =            713.7066009543756309
    One-Electron Energy =               -2150.3544767812672944
    Two-Electron Energy =                 884.9663079763556652
    DFT Exchange-Correlation Energy =       0.0000000000000000
    Empirical Dispersion Energy =           0.0000000000000000
    PCM Polarization Energy =               0.0000000000000000
    EFP Energy =                            0.0000000000000000
    Total Energy =                       -551.6815678505361120
  Basis Set: (AUG-CC-PVTZ AUX)
    Blend: AUG-CC-PVTZ-RI
    Molecular point group: c1
  Basis Set: AUG-CC-PVTZ
    Blend: AUG-CC-PVTZ
  Basis Set: (AUG-CC-PVTZ AUX)
    Blend: AUG-CC-PVTZ-JKFIT
  Basis Set: (AUG-CC-PVTZ AUX)
    Blend: AUG-CC-PVTZ-JKFIT
	 Reference Energy          =    -551.6815678505361120 [Eh]
	 Singles Energy            =      -0.0000000000000003 [Eh]
	 Same-Spin Energy          =      -0.5958259225998382 [Eh]
	 Opposite-Spin Energy      =      -1.8233918282090671 [Eh]
	 Correlation Energy        =      -2.4192177508089059 [Eh]
	 Total Energy              =    -554.1007856013450237 [Eh]

	 ================> DF-SCS-MP2 Energies <==================
	-----------------------------------------------------------
	 SCS Same-Spin Scale       =       0.3333333333333333 [-]
	 SCS Opposite-Spin Scale   =       1.2000000000000000 [-]
	 SCS Same-Spin Energy      =      -0.1986086408666127 [Eh]
	 SCS Opposite-Spin Energy  =      -2.1880701938508804 [Eh]
	 SCS Correlation Energy    =      -2.3866788347174936 [Eh]
	 SCS Total Energy          =    -554.0682466852535981 [Eh]
	-----------------------------------------------------------

  -Total Gradient:
     Atom            X                  Y                   Z
    ------   -----------------  -----------------  -----------------
       1       -0.002071851663    -0.003530727320    -0.000070518156
       2        0.000027064893     0.000016749663     0.000018607680
       3        0.000013713372     0.000023519713    -0.000020604746
       4       -0.000015029213    -0.000017716631     0.000006070894
       5        0.002685745405     0.001768642630     0.002539096464
       6        0.000023733876    -0.000013043372     0.000005082907
       7        0.000029073573     0.000010944091     0.000017187562
       8       -0.000013646156    -0.000015297621     0.000013124004
       9        0.004380313155     0.006113997864     0.001353785175
      10       -0.005035783900    -0.004357073218    -0.003843347053
      11        0.000008596118    -0.000003107658     0.000017480505
      12       -0.000006798422     0.000008092781    -0.000018766100
      13       -0.000002375754     0.000001217820    -0.000003938415
      14        0.000004318665    -0.000001334693     0.000007206988
      15       -0.000008457304    -0.000006001067    -0.000010360564
      16       -0.000001094564    -0.000001708019     0.000008990270
      17        0.000001392241     0.000004683395    -0.000003251247
      18       -0.000007305627    -0.000008700256    -0.000000881862
      19       -0.000003833971     0.000007788738    -0.000007129749
      20       -0.000004991596    -0.000003563058    -0.000004197344
      21        0.000002746378     0.000002477447    -0.000002390091
      22       -0.000003456082     0.000000750899     0.000000932278
      23       -0.000002073446    -0.000000592118    -0.000002179394

  **** Optimization is complete! (in 7 steps) ****
    Final optimized geometry and variables:
    Molecular point group: c1

    Geometry (in Angstrom), charge = 1, multiplicity = 1:

    C           -1.259359970502     0.782965131404    -0.550792392489
    C           -0.301313522836     0.072873580342     1.542000312443
    C           -2.333939789877     1.325062977924     0.120715273413
    C           -1.363603717499     0.638145782989     2.219424825805
    C            1.477663475509     0.172587206662    -1.652377737413
    C            1.396930087809    -1.694982600193    -0.161068362135
    C            2.532265762975    -0.414877467075    -2.305411274676
    C            2.455339361578    -2.254736666658    -0.832373618134
    C           -0.222165302317     0.160446230471     0.150835324698
    C            0.866967210613    -0.464038542798    -0.565198305937
    C           -2.387467335714     1.263717723157     1.511356451955
    N            2.988068821307    -1.605172224843    -1.880558106635
    O           -3.457462378642     1.825668314896     2.100545618247
    H           -1.239786683975     0.815731724833    -1.630505431970
    H            0.493725896875    -0.395501954065     2.103703069988
    H           -3.147856245572     1.792329710132    -0.410743932714
    H           -1.399686463162     0.595626608503     3.298324516348
    H            1.136137139273     1.141279509885    -1.979975490889
    H            0.961496118369    -2.232949810989     0.665304935605
    H            3.041828305279     0.031570989890    -3.142970616308
    H            2.891760117465    -3.205503662290    -0.575343715056
    H            3.767625336792    -2.027996911378    -2.367817007117
    H           -3.405626529982     1.729133107983     3.057929142094

*** Psi4 exiting successfully. Buy a developer a beer!
