                               Psi4 1.1 release

  ==> Input File <==

--------------------------------------------------------------------------

memory 5000 mb

molecule butane {
  symmetry C1
  0 1
  H      2.054   1.192   -9.978
  H      1.636   0.632   -8.376
  H      1.702   2.345   -8.715
  C      2.142   1.395   -8.932
  H      4.169   2.051   -9.210
  H      3.731   1.788   -7.539
  C      3.631   1.416   -8.537
  H      3.665   -0.647   -7.940
  H      4.104   -0.384   -9.610
  C      4.203   -0.012   -8.612
  H      6.088   -0.983   -8.270
  H      5.791   0.381   -7.220
  H      6.230   0.644   -8.890
  C      5.691   0.009   -8.218
  units Angstrom
}

dih_string = "10 7 4 3 170"
set optking fixed_dihedral = $dih_string

optimize('MP2/aug-cc-pvtz')
--------------------------------------------------------------------------

    Molecular point group: c1
  Charge       = 0
  Multiplicity = 1
  Basis Set: AUG-CC-PVTZ
    Blend: AUG-CC-PVTZ
  Basis Set: (AUG-CC-PVTZ AUX)
    Blend: AUG-CC-PVTZ-JKFIT
  @DF-RHF Final Energy:  -157.35243759347009
    Total Energy =                       -157.3524375934700856
  Basis Set: (AUG-CC-PVTZ AUX)
    Blend: AUG-CC-PVTZ-RI
    Molecular point group: c1
  Basis Set: AUG-CC-PVTZ
    Blend: AUG-CC-PVTZ
  Basis Set: (AUG-CC-PVTZ AUX)
    Blend: AUG-CC-PVTZ-JKFIT
  Basis Set: (AUG-CC-PVTZ AUX)
    Blend: AUG-CC-PVTZ-JKFIT
	 Reference Energy          =    -157.3524375934700856 [Eh]
	 Singles Energy            =      -0.0000000000000001 [Eh]
	 Same-Spin Energy          =      -0.1653755117782501 [Eh]
	 Opposite-Spin Energy      =      -0.6387050308195382 [Eh]
	 Correlation Energy        =      -0.8040805425977884 [Eh]
	 Total Energy              =    -158.1565181360678878 [Eh]
	 SCS Total Energy          =    -158.1740088010462841 [Eh]
  @DF-RHF Final Energy:  -157.35508298051789
    Total Energy =                       -157.3550829805178921
  @DF-RHF Final Energy:  -157.35587369909456
    Total Energy =                       -157.3558736990945590
  @DF-RHF Final Energy:  -157.35610767923012
    Total Energy =                       -157.3561076792301208
  Charge       = 0
  Multiplicity = 1
  Basis Set: AUG-CC-PVTZ
    Blend: AUG-CC-PVTZ
  Basis Set: (AUG-CC-PVTZ AUX)
    Blend: AUG-CC-PVTZ-JKFIT

    Orbital Energies (a.u.)
    -----------------------

    Doubly Occupied:

       1A    -11.211399     2A    -11.210756     3A    -11.206050
       4A    -11.206024     5A     -1.074437     6A     -0.982188
       7A     -0.860951     8A     -0.787945     9A     -0.641162
      10A     -0.585622    11A     -0.577252    12A     -0.568277
      13A     -0.514255    14A     -0.494470    15A     -0.469919
      16A     -0.461210    17A     -0.456596

  @DF-RHF Final Energy:  -157.35610196671092

   => Energetics <=

    Nuclear Repulsion Energy =            131.5505586222823240
    One-Electron Energy =                -471.1962957956561127
    Two-Electron Energy =                 182.2896352066628651
    DFT Exchange-Correlation Energy =       0.0000000000000000
    Empirical Dispersion Energy =           0.0000000000000000
    PCM Polarization Energy =               0.0000000000000000
    EFP Energy =                            0.0000000000000000
    Total Energy =                       -157.3561019667109235
  Basis Set: (AUG-CC-PVTZ AUX)
    Blend: AUG-CC-PVTZ-RI
    Molecular point group: c1
  Basis Set: AUG-CC-PVTZ
    Blend: AUG-CC-PVTZ
  Basis Set: (AUG-CC-PVTZ AUX)
    Blend: AUG-CC-PVTZ-JKFIT
  Basis Set: (AUG-CC-PVTZ AUX)
    Blend: AUG-CC-PVTZ-JKFIT
	 Reference Energy          =    -157.3561019667109235 [Eh]
	 Singles Energy            =      -0.0000000000000000 [Eh]
	 Same-Spin Energy          =      -0.1654611184189475 [Eh]
	 Opposite-Spin Energy      =      -0.6391959887575713 [Eh]
	 Correlation Energy        =      -0.8046571071765188 [Eh]
	 Total Energy              =    -158.1607590738874478 [Eh]

	 ================> DF-SCS-MP2 Energies <==================
	-----------------------------------------------------------
	 SCS Same-Spin Scale       =       0.3333333333333333 [-]
	 SCS Opposite-Spin Scale   =       1.2000000000000000 [-]
	 SCS Same-Spin Energy      =      -0.0551537061396492 [Eh]
	 SCS Opposite-Spin Energy  =      -0.7670351865090855 [Eh]
	 SCS Correlation Energy    =      -0.8221888926487347 [Eh]
	 SCS Total Energy          =    -158.1782908593596630 [Eh]
	-----------------------------------------------------------

  -Total Gradient:
     Atom            X                  Y                   Z
    ------   -----------------  -----------------  -----------------
       1       -0.000008228333     0.000002688257    -0.000071782490
       2       -0.000022248548    -0.000014814747    -0.000005683240
       3       -0.000393154219    -0.000435283835     0.001388155651
       4        0.000479017105     0.000476225977    -0.001264068163
       5        0.000019362967    -0.000005048226    -0.000053587238
       6       -0.000005287473     0.000005974686    -0.000005078302
       7        0.000268469127     0.000106809117    -0.001004255448
       8        0.000000800120     0.000009858780     0.000011998834
       9        0.000002073491     0.000002335823    -0.000039536957
      10       -0.000282255473    -0.000186750234     0.001047256453
      11        0.000015805578    -0.000045106589    -0.000006280507
      12        0.000019480490     0.000014995680     0.000047110075
      13        0.000034195072     0.000028579911    -0.000027412029
      14       -0.000128029905     0.000039535399    -0.000016836636

  **** Optimization is complete! (in 5 steps) ****
    Final optimized geometry and variables:
    Molecular point group: c1

    Geometry (in Angstrom), charge = 0, multiplicity = 1:

    H           -1.890511387627     0.480838501450    -1.423089421264
    H           -2.320742159657    -0.062274789317     0.192146687423
    H           -2.243112542441     1.655769526312    -0.154298888546
    C           -1.773044203323     0.697650392360    -0.363364308217
    H            0.255919021526     1.364668430852    -0.611379938325
    H           -0.203531201825     1.077880214697     1.050496909405
    C           -0.308753534263     0.691506094543     0.035416521014
    H           -0.245917307921    -1.353062952516     0.648199414178
    H            0.179916176932    -1.099240517192    -1.028477081035
    C            0.305991776208    -0.693557521905    -0.023142377628
    H            2.199790614363    -1.696103767617     0.310498589243
    H            1.917340080991    -0.310563259344     1.358508596689
    H            2.346249157862    -0.062624264154    -0.328242154037
    C            1.776192256329    -0.695203152061     0.349883906296

*** Psi4 exiting successfully. Buy a developer a beer!
