                               Psi4 1.1 release

  ==> Input File <==

--------------------------------------------------------------------------

memory 5 Gb

molecule phepyrOH_anion {
  symmetry C1
  -1 1
  C      1.885   -1.036   -0.112
  C      2.878   -1.652   2.002
  C      0.807   -0.463   0.561
  C      1.800   -1.079   2.676
  C      4.641   -1.552   -1.148
  C      4.519   -3.473   0.295
  C      5.710   -2.164   -1.782
  C      5.593   -3.999   -0.405
  C      2.921   -1.631   0.608
  C      4.040   -2.226   -0.090
  C      0.764   -0.484   1.955
  N      6.203   -3.374   -1.437
  O      -0.227   0.042   2.574
  H      1.904   -1.011   -1.199
  H      3.678   -2.112   2.577
  H      0.011   -0.006   -0.025
  H      1.791   -1.108   3.764
  H      4.296   -0.577   -1.476
  H      4.075   -4.028   1.115
  H      6.215   -1.679   -2.612
  H      6.004   -4.969   -0.144
  units Angstrom
}

dih_string = "1 9 10 5 45"
set optking fixed_dihedral = $dih_string

optimize('MP2/aug-cc-PVTZ')
--------------------------------------------------------------------------

    Molecular point group: c1
  Charge       = -1
  Multiplicity = 1
  Basis Set: AUG-CC-PVTZ
    Blend: AUG-CC-PVTZ
  Basis Set: (AUG-CC-PVTZ AUX)
    Blend: AUG-CC-PVTZ-JKFIT
  @DF-RHF Final Energy:  -550.71504688625521
    Total Energy =                       -550.7150468862552088
  Basis Set: (AUG-CC-PVTZ AUX)
    Blend: AUG-CC-PVTZ-RI
    Molecular point group: c1
  Basis Set: AUG-CC-PVTZ
    Blend: AUG-CC-PVTZ
  Basis Set: (AUG-CC-PVTZ AUX)
    Blend: AUG-CC-PVTZ-JKFIT
  Basis Set: (AUG-CC-PVTZ AUX)
    Blend: AUG-CC-PVTZ-JKFIT
	 Reference Energy          =    -550.7150468862552088 [Eh]
	 Singles Energy            =      -0.0000000000000001 [Eh]
	 Same-Spin Energy          =      -0.6137438315263143 [Eh]
	 Opposite-Spin Energy      =      -1.8379753055136392 [Eh]
	 Correlation Energy        =      -2.4517191370399534 [Eh]
	 Total Energy              =    -553.1667660232951675 [Eh]
	 SCS Total Energy          =    -553.1251985300469869 [Eh]
  @DF-RHF Final Energy:  -550.72166084006153
    Total Energy =                       -550.7216608400615314
  @DF-RHF Final Energy:  -550.72574202727310
    Total Energy =                       -550.7257420272730997
  @DF-RHF Final Energy:  -550.72727141254893
    Total Energy =                       -550.7272714125489301
  @DF-RHF Final Energy:  -550.72757763851268
    Total Energy =                       -550.7275776385126846
  @DF-RHF Final Energy:  -550.72767400818736
    Total Energy =                       -550.7276740081873641
  @DF-RHF Final Energy:  -550.72768790298369
    Total Energy =                       -550.7276879029836891
  @DF-RHF Final Energy:  -550.72767521330491
    Total Energy =                       -550.7276752133049058
  @DF-RHF Final Energy:  -550.72766405827201
    Total Energy =                       -550.7276640582720120
  @DF-RHF Final Energy:  -550.72765864543112
    Total Energy =                       -550.7276586454311200
  @DF-RHF Final Energy:  -550.72758754030451
    Total Energy =                       -550.7275875403045120
  @DF-RHF Final Energy:  -550.72763216034775
    Total Energy =                       -550.7276321603477527
  Charge       = -1
  Multiplicity = 1
  Basis Set: AUG-CC-PVTZ
    Blend: AUG-CC-PVTZ
  Basis Set: (AUG-CC-PVTZ AUX)
    Blend: AUG-CC-PVTZ-JKFIT

    Orbital Energies (a.u.)
    -----------------------

    Doubly Occupied:

       1A    -20.316810     2A    -15.448154     3A    -11.163937
       4A    -11.163759     5A    -11.145927     6A    -11.131343
       7A    -11.117175     8A    -11.116823     9A    -11.100289
      10A    -11.099756    11A    -11.075699    12A    -11.061725
      13A    -11.061153    14A     -1.147495    15A     -1.144904
      16A     -1.016895    17A     -0.957773    18A     -0.920428
      19A     -0.866968    20A     -0.838122    21A     -0.744211
      22A     -0.734813    23A     -0.674938    24A     -0.650395
      25A     -0.596086    26A     -0.551281    27A     -0.538816
      28A     -0.511703    29A     -0.487388    30A     -0.482454
      31A     -0.481145    32A     -0.437297    33A     -0.431375
      34A     -0.420030    35A     -0.401103    36A     -0.379001
      37A     -0.373304    38A     -0.348302    39A     -0.312669
      40A     -0.309929    41A     -0.250963    42A     -0.239807
      43A     -0.223655    44A     -0.201235    45A     -0.107811

  @DF-RHF Final Energy:  -550.72762426496968

   => Energetics <=

    Nuclear Repulsion Energy =            682.4171807527601459
    One-Electron Energy =               -2114.7199142546519397
    Two-Electron Energy =                 881.5751092369222306
    DFT Exchange-Correlation Energy =       0.0000000000000000
    Empirical Dispersion Energy =           0.0000000000000000
    PCM Polarization Energy =               0.0000000000000000
    EFP Energy =                            0.0000000000000000
    Total Energy =                       -550.7276242649696769
  Basis Set: (AUG-CC-PVTZ AUX)
    Blend: AUG-CC-PVTZ-RI
    Molecular point group: c1
  Basis Set: AUG-CC-PVTZ
    Blend: AUG-CC-PVTZ
  Basis Set: (AUG-CC-PVTZ AUX)
    Blend: AUG-CC-PVTZ-JKFIT
  Basis Set: (AUG-CC-PVTZ AUX)
    Blend: AUG-CC-PVTZ-JKFIT
	 Reference Energy          =    -550.7276242649696769 [Eh]
	 Singles Energy            =      -0.0000000000000006 [Eh]
	 Same-Spin Energy          =      -0.6125150164401326 [Eh]
	 Opposite-Spin Energy      =      -1.8365558511347542 [Eh]
	 Correlation Energy        =      -2.4490708675748873 [Eh]
	 Total Energy              =    -553.1766951325445234 [Eh]

	 ================> DF-SCS-MP2 Energies <==================
	-----------------------------------------------------------
	 SCS Same-Spin Scale       =       0.3333333333333333 [-]
	 SCS Opposite-Spin Scale   =       1.2000000000000000 [-]
	 SCS Same-Spin Energy      =      -0.2041716721467109 [Eh]
	 SCS Opposite-Spin Energy  =      -2.2038670213617051 [Eh]
	 SCS Correlation Energy    =      -2.4080386935084164 [Eh]
	 SCS Total Energy          =    -553.1356629584780649 [Eh]
	-----------------------------------------------------------

  -Total Gradient:
     Atom            X                  Y                   Z
    ------   -----------------  -----------------  -----------------
       1       -0.002530420314    -0.004258726660    -0.000075522424
       2        0.000146485991     0.000153196343     0.000035344867
       3       -0.000036112808    -0.000117602886    -0.000023332908
       4       -0.000033101373    -0.000109592564    -0.000014975696
       5        0.003491665358     0.002329836805     0.003339840989
       6        0.000085917354     0.000098376157     0.000116074424
       7        0.000036587599    -0.000000783692     0.000048833804
       8       -0.000017512540    -0.000003096956     0.000014007468
       9        0.005611340808     0.007593837355     0.001779168784
      10       -0.006828271120    -0.005876189124    -0.005255761567
      11        0.000154486391     0.000252773225     0.000027886741
      12       -0.000040527390     0.000004143086    -0.000043001072
      13       -0.000078756212    -0.000073665712     0.000007520002
      14        0.000012865198     0.000037581045    -0.000011651716
      15        0.000024916025    -0.000009990662     0.000015736415
      16       -0.000002317307    -0.000021722579    -0.000001944428
      17       -0.000012578337    -0.000034125602    -0.000008288005
      18       -0.000003407374     0.000012524251    -0.000001211550
      19        0.000012037421     0.000013569140     0.000037513246
      20       -0.000003086527    -0.000001197706     0.000005389202
      21        0.000009789157     0.000010856745     0.000008373423

  **** Optimization is complete! (in 13 steps) ****
    Final optimized geometry and variables:
    Molecular point group: c1

    Geometry (in Angstrom), charge = -1, multiplicity = 1:

    C           -1.261280446850     0.819302560950    -0.538202212219
    C           -0.334547789994     0.078208187623     1.535593263206
    C           -2.344433349580     1.349972054361     0.126947597080
    C           -1.401424040323     0.624630881953     2.214040543770
    C            1.494771485331     0.139658622984    -1.672282868569
    C            1.424791531019    -1.673925664460    -0.164041823860
    C            2.556233412685    -0.485346369459    -2.301411815555
    C            2.498554222219    -2.218636026288    -0.845923370007
    C           -0.211742114426     0.182495880325     0.141782292519
    C            0.864225555843    -0.457894191853    -0.573712709612
    C           -2.483966528978     1.300254582895     1.555024677575
    N            3.078609061376    -1.656266878150    -1.913668779643
    O           -3.468272968617     1.796723785930     2.173120079956
    H           -1.229091245206     0.867674865053    -1.620795591553
    H            0.455261802173    -0.408161314613     2.096330221174
    H           -3.146658092423     1.817537225713    -0.428201350158
    H           -1.448867538908     0.560550790969     3.293036887178
    H            1.154650900255     1.103332233048    -2.022804882994
    H            0.999198819117    -2.202137370961     0.676379511176
    H            3.030667996963    -0.012372426291    -3.152111355690
    H            2.914037527942    -3.165425879932    -0.524057469054

*** Psi4 exiting successfully. Buy a developer a beer!
