                               Psi4 1.1 release

  ==> Input File <==

--------------------------------------------------------------------------

memory 1000 mb

molecule butane {
  symmetry C1
  0 1
  H      3.973   1.833   -10.617
  H      3.829   3.262   -9.621
  H      5.290   2.306   -9.572
  C      4.227   2.269   -9.673
  H      3.885   1.852   -7.593
  H      2.567   1.379   -8.638
  C      3.631   1.416   -8.537
  H      3.665   -0.647   -7.940
  H      4.104   -0.384   -9.610
  C      4.203   -0.012   -8.612
  H      6.088   -0.983   -8.270
  H      5.791   0.381   -7.220
  H      6.230   0.644   -8.890
  C      5.691   0.009   -8.218
  units Angstrom
}

dih_string = "14 10 7 4 70"
set optking fixed_dihedral = $dih_string

optimize('MP2/aug-cc-pvtz')
--------------------------------------------------------------------------

    Molecular point group: c1
  Charge       = 0
  Multiplicity = 1
  Basis Set: AUG-CC-PVTZ
    Blend: AUG-CC-PVTZ
  Basis Set: (AUG-CC-PVTZ AUX)
    Blend: AUG-CC-PVTZ-JKFIT
  @DF-RHF Final Energy:  -157.34974533876391
    Total Energy =                       -157.3497453387639098
  Basis Set: (AUG-CC-PVTZ AUX)
    Blend: AUG-CC-PVTZ-RI
    Molecular point group: c1
  Basis Set: AUG-CC-PVTZ
    Blend: AUG-CC-PVTZ
  Basis Set: (AUG-CC-PVTZ AUX)
    Blend: AUG-CC-PVTZ-JKFIT
  Basis Set: (AUG-CC-PVTZ AUX)
    Blend: AUG-CC-PVTZ-JKFIT
	 Reference Energy          =    -157.3497453387639098 [Eh]
	 Singles Energy            =      -0.0000000000000001 [Eh]
	 Same-Spin Energy          =      -0.1661758185420528 [Eh]
	 Opposite-Spin Energy      =      -0.6395568164803400 [Eh]
	 Correlation Energy        =      -0.8057326350223929 [Eh]
	 Total Energy              =    -158.1554779737863043 [Eh]
	 SCS Total Energy          =    -158.1726054580543348 [Eh]
  @DF-RHF Final Energy:  -157.35309674818117
    Total Energy =                       -157.3530967481811729
  @DF-RHF Final Energy:  -157.35411876246721
    Total Energy =                       -157.3541187624672091
  @DF-RHF Final Energy:  -157.35456471739278
    Total Energy =                       -157.3545647173927762
  @DF-RHF Final Energy:  -157.35454850561905
    Total Energy =                       -157.3545485056190500
  Charge       = 0
  Multiplicity = 1
  Basis Set: AUG-CC-PVTZ
    Blend: AUG-CC-PVTZ
  Basis Set: (AUG-CC-PVTZ AUX)
    Blend: AUG-CC-PVTZ-JKFIT

    Orbital Energies (a.u.)
    -----------------------

    Doubly Occupied:

       1A    -11.211595     2A    -11.210965     3A    -11.205580
       4A    -11.205579     5A     -1.074373     6A     -0.977488
       7A     -0.872600     8A     -0.777402     9A     -0.624390
      10A     -0.623376    11A     -0.575284    12A     -0.533563
      13A     -0.531527    14A     -0.503595    15A     -0.464181
      16A     -0.457236    17A     -0.456874

  @DF-RHF Final Energy:  -157.35455308810617

   => Energetics <=

    Nuclear Repulsion Energy =            133.3552084609056578
    One-Electron Energy =                -474.8083060663641959
    Two-Electron Energy =                 184.0985445173523658
    DFT Exchange-Correlation Energy =       0.0000000000000000
    Empirical Dispersion Energy =           0.0000000000000000
    PCM Polarization Energy =               0.0000000000000000
    EFP Energy =                            0.0000000000000000
    Total Energy =                       -157.3545530881061723
  Basis Set: (AUG-CC-PVTZ AUX)
    Blend: AUG-CC-PVTZ-RI
    Molecular point group: c1
  Basis Set: AUG-CC-PVTZ
    Blend: AUG-CC-PVTZ
  Basis Set: (AUG-CC-PVTZ AUX)
    Blend: AUG-CC-PVTZ-JKFIT
  Basis Set: (AUG-CC-PVTZ AUX)
    Blend: AUG-CC-PVTZ-JKFIT
	 Reference Energy          =    -157.3545530881061723 [Eh]
	 Singles Energy            =      -0.0000000000000002 [Eh]
	 Same-Spin Energy          =      -0.1658134096821649 [Eh]
	 Opposite-Spin Energy      =      -0.6396089214865746 [Eh]
	 Correlation Energy        =      -0.8054223311687397 [Eh]
	 Total Energy              =    -158.1599754192749003 [Eh]

	 ================> DF-SCS-MP2 Energies <==================
	-----------------------------------------------------------
	 SCS Same-Spin Scale       =       0.3333333333333333 [-]
	 SCS Opposite-Spin Scale   =       1.2000000000000000 [-]
	 SCS Same-Spin Energy      =      -0.0552711365607216 [Eh]
	 SCS Opposite-Spin Energy  =      -0.7675307057838895 [Eh]
	 SCS Correlation Energy    =      -0.8228018423446114 [Eh]
	 SCS Total Energy          =    -158.1773549304507753 [Eh]
	-----------------------------------------------------------

  -Total Gradient:
     Atom            X                  Y                   Z
    ------   -----------------  -----------------  -----------------
       1        0.000003805346     0.000006998248     0.000008254071
       2       -0.000002063373    -0.000002534807     0.000002165013
       3       -0.000008729068    -0.000004455230     0.000002531668
       4       -0.000566880195    -0.000233898579    -0.000453445039
       5        0.000001888123     0.000006761145    -0.000012457009
       6        0.000008205002    -0.000003870458     0.000013478164
       7        0.000708051730     0.000285559021     0.000907845971
       8       -0.000005328629     0.000004651945    -0.000014236738
       9        0.000012359285    -0.000000713125     0.000007933716
      10        0.000066857402     0.000038830985    -0.001183928209
      11       -0.000004445655     0.000000610793    -0.000000034322
      12        0.000001839321    -0.000004741953    -0.000010578157
      13       -0.000008726441    -0.000002634991     0.000003310869
      14       -0.000206832847    -0.000090562995     0.000729160001

  **** Optimization is complete! (in 6 steps) ****
    Final optimized geometry and variables:
    Molecular point group: c1

    Geometry (in Angstrom), charge = 0, multiplicity = 1:

    H           -0.473391718574     0.944246166145    -1.878960155679
    H           -0.728433946472     2.364447815569    -0.871733287537
    H            0.806883471304     1.516632643974    -0.817044976653
    C           -0.268386207979     1.379467236767    -0.902231690682
    H           -0.598613107079     0.934463190271     1.174041421860
    H           -1.891677265610     0.427696020545     0.112339365884
    C           -0.806862419475     0.485899092316     0.201153643577
    H           -0.799180966028    -1.555584721332     0.845848458540
    H           -0.361074060350    -1.336722250154    -0.832305552661
    C           -0.229343925680    -0.920230561495     0.167828682906
    H            1.608360236246    -1.995620646839     0.558399174342
    H            1.381604476870    -0.563564675774     1.555554815111
    H            1.854982356413    -0.400897591140    -0.130817731597
    C            1.237449613737    -0.973278941574     0.557158204744

*** Psi4 exiting successfully. Buy a developer a beer!
