                               Psi4 1.1 release

  ==> Input File <==

--------------------------------------------------------------------------

memory 5000 mb

molecule butane {
  symmetry C1
  0 1
  H      1.970   0.603   -9.629
  H      1.543   1.238   -8.058
  H      1.879   2.329   -9.381
  C      2.142   1.395   -8.932
  H      4.169   2.051   -9.210
  H      3.731   1.788   -7.539
  C      3.631   1.416   -8.537
  H      3.665   -0.647   -7.940
  H      4.104   -0.384   -9.610
  C      4.203   -0.012   -8.612
  H      6.088   -0.983   -8.270
  H      5.791   0.381   -7.220
  H      6.230   0.644   -8.890
  C      5.691   0.009   -8.218
  units Angstrom
}

dih_string = "10 7 4 3 210"
set optking fixed_dihedral = $dih_string

optimize('MP2/aug-cc-pvtz')
--------------------------------------------------------------------------

    Molecular point group: c1
  Charge       = 0
  Multiplicity = 1
  Basis Set: AUG-CC-PVTZ
    Blend: AUG-CC-PVTZ
  Basis Set: (AUG-CC-PVTZ AUX)
    Blend: AUG-CC-PVTZ-JKFIT
  @DF-RHF Final Energy:  -157.35000951563015
    Total Energy =                       -157.3500095156301484
  Basis Set: (AUG-CC-PVTZ AUX)
    Blend: AUG-CC-PVTZ-RI
    Molecular point group: c1
  Basis Set: AUG-CC-PVTZ
    Blend: AUG-CC-PVTZ
  Basis Set: (AUG-CC-PVTZ AUX)
    Blend: AUG-CC-PVTZ-JKFIT
  Basis Set: (AUG-CC-PVTZ AUX)
    Blend: AUG-CC-PVTZ-JKFIT
	 Reference Energy          =    -157.3500095156301484 [Eh]
	 Singles Energy            =      -0.0000000000000001 [Eh]
	 Same-Spin Energy          =      -0.1654330076831803 [Eh]
	 Opposite-Spin Energy      =      -0.6391124794672071 [Eh]
	 Correlation Energy        =      -0.8045454871503874 [Eh]
	 Total Energy              =    -158.1545550027805405 [Eh]
	 SCS Total Energy          =    -158.1720888268851866 [Eh]
  @DF-RHF Final Energy:  -157.35277303356182
    Total Energy =                       -157.3527730335618173
  @DF-RHF Final Energy:  -157.35364465328615
    Total Energy =                       -157.3536446532861532
  @DF-RHF Final Energy:  -157.35396764025305
    Total Energy =                       -157.3539676402530461
  @DF-RHF Final Energy:  -157.35401057033172
    Total Energy =                       -157.3540105703317238
  @DF-RHF Final Energy:  -157.35401536468424
    Total Energy =                       -157.3540153646842441
  Charge       = 0
  Multiplicity = 1
  Basis Set: AUG-CC-PVTZ
    Blend: AUG-CC-PVTZ
  Basis Set: (AUG-CC-PVTZ AUX)
    Blend: AUG-CC-PVTZ-JKFIT

    Orbital Energies (a.u.)
    -----------------------

    Doubly Occupied:

       1A    -11.211530     2A    -11.210833     3A    -11.205965
       4A    -11.205783     5A     -1.073689     6A     -0.981368
       7A     -0.861416     8A     -0.788478     9A     -0.640237
      10A     -0.584320    11A     -0.577250    12A     -0.569532
      13A     -0.512274    14A     -0.496150    15A     -0.470325
      16A     -0.459854    17A     -0.455536

  @DF-RHF Final Energy:  -157.35401397162087

   => Energetics <=

    Nuclear Repulsion Energy =            131.4395244829481442
    One-Electron Energy =                -470.9779980046785113
    Two-Electron Energy =                 182.1844595501094659
    DFT Exchange-Correlation Energy =       0.0000000000000000
    Empirical Dispersion Energy =           0.0000000000000000
    PCM Polarization Energy =               0.0000000000000000
    EFP Energy =                            0.0000000000000000
    Total Energy =                       -157.3540139716208728
  Basis Set: (AUG-CC-PVTZ AUX)
    Blend: AUG-CC-PVTZ-RI
    Molecular point group: c1
  Basis Set: AUG-CC-PVTZ
    Blend: AUG-CC-PVTZ
  Basis Set: (AUG-CC-PVTZ AUX)
    Blend: AUG-CC-PVTZ-JKFIT
  Basis Set: (AUG-CC-PVTZ AUX)
    Blend: AUG-CC-PVTZ-JKFIT
	 Reference Energy          =    -157.3540139716208728 [Eh]
	 Singles Energy            =      -0.0000000000000000 [Eh]
	 Same-Spin Energy          =      -0.1654679581325746 [Eh]
	 Opposite-Spin Energy      =      -0.6395241420880419 [Eh]
	 Correlation Energy        =      -0.8049921002206165 [Eh]
	 Total Energy              =    -158.1590060718415032 [Eh]

	 ================> DF-SCS-MP2 Energies <==================
	-----------------------------------------------------------
	 SCS Same-Spin Scale       =       0.3333333333333333 [-]
	 SCS Opposite-Spin Scale   =       1.2000000000000000 [-]
	 SCS Same-Spin Energy      =      -0.0551559860441915 [Eh]
	 SCS Opposite-Spin Energy  =      -0.7674289705056502 [Eh]
	 SCS Correlation Energy    =      -0.8225849565498418 [Eh]
	 SCS Total Energy          =    -158.1765989281707050 [Eh]
	-----------------------------------------------------------

  -Total Gradient:
     Atom            X                  Y                   Z
    ------   -----------------  -----------------  -----------------
       1       -0.000023306466     0.000011854751     0.000011936707
       2       -0.000009820030     0.000018516645     0.000016618635
       3        0.000729029306    -0.001229661205    -0.003040298240
       4       -0.000655498724     0.001642127283     0.002917866965
       5        0.000026869618    -0.000047518722     0.000010397705
       6       -0.000010763530     0.000057280193    -0.000000567929
       7       -0.000645039656    -0.000826205407     0.002521192255
       8       -0.000003632907     0.000007407319    -0.000009320864
       9       -0.000007647402    -0.000028397349    -0.000005742982
      10        0.000644658075     0.000386562594    -0.002447511557
      11       -0.000002171459    -0.000002081664     0.000011301449
      12        0.000025416189     0.000007470324     0.000013548011
      13       -0.000001512221     0.000000043559     0.000000221452
      14       -0.000066580792     0.000002601678     0.000000358396

  **** Optimization is complete! (in 7 steps) ****
    Final optimized geometry and variables:
    Molecular point group: c1

    Geometry (in Angstrom), charge = 0, multiplicity = 1:

    H           -1.992950591296    -0.070602121275    -1.072144077635
    H           -2.404970886258     0.522866982949     0.526688102257
    H           -2.077950949127     1.650297464355    -0.795341269529
    C           -1.778652411696     0.708806415266    -0.341845602609
    H            0.252931242648     1.333281779646    -0.675658641852
    H           -0.145982450485     1.121854506694     1.009737874799
    C           -0.298091136194     0.696149411191     0.017517961158
    H           -0.262701642297    -1.361401551608     0.610845996130
    H            0.198670218829    -1.080915098240    -1.051909798164
    C            0.307319101720    -0.693784097266    -0.037966939861
    H            2.191493096129    -1.710604883201     0.304645598053
    H            1.891125229080    -0.355923512668     1.387409976545
    H            2.353525774283    -0.059188924151    -0.282409891291
    C            1.769156613181    -0.710303709857     0.365497460240

*** Psi4 exiting successfully. Buy a developer a beer!
