                               Psi4 1.1 release

  ==> Input File <==

--------------------------------------------------------------------------

memory 5 Gb

molecule phepyrFOH_neutral {
  symmetry C1
  0 1
  C      1.885   -1.036   -0.112
  C      0.807   -0.463   0.561
  C      4.436   -1.718   -1.327
  C      4.718   -3.303   0.460
  C      1.800   -1.079   2.676
  C      5.512   -2.321   -1.959
  C      5.781   -3.835   -0.252
  C      2.921   -1.631   0.608
  C      4.038   -2.225   -0.095
  C      0.764   -0.484   1.955
  C      2.878   -1.652   2.002
  N      6.197   -3.370   -1.451
  O      -0.289   0.076   2.612
  F      3.866   -2.220   2.709
  H      1.904   -1.012   -1.199
  H      0.002   -0.002   -0.006
  H      3.931   -0.877   -1.791
  H      4.435   -3.725   1.419
  H      1.772   -1.099   3.762
  H      5.863   -1.962   -2.921
  H      6.343   -4.678   0.137
  H      -0.175   -0.018   3.571
  units Angstrom
}

dih_string = "1 8 9 3 30"
set optking fixed_dihedral = $dih_string

optimize('MP2/aug-cc-PVTZ')
--------------------------------------------------------------------------

    Molecular point group: c1
  Charge       = 0
  Multiplicity = 1
  Basis Set: AUG-CC-PVTZ
    Blend: AUG-CC-PVTZ
  Basis Set: (AUG-CC-PVTZ AUX)
    Blend: AUG-CC-PVTZ-JKFIT
  @DF-RHF Final Energy:  -650.16934100358174
    Total Energy =                       -650.1693410035818488
  Basis Set: (AUG-CC-PVTZ AUX)
    Blend: AUG-CC-PVTZ-RI
    Molecular point group: c1
  Basis Set: AUG-CC-PVTZ
    Blend: AUG-CC-PVTZ
  Basis Set: (AUG-CC-PVTZ AUX)
    Blend: AUG-CC-PVTZ-JKFIT
  Basis Set: (AUG-CC-PVTZ AUX)
    Blend: AUG-CC-PVTZ-JKFIT
	 Reference Energy          =    -650.1693410035817351 [Eh]
	 Singles Energy            =      -0.0000000000000003 [Eh]
	 Same-Spin Energy          =      -0.6787367622183571 [Eh]
	 Opposite-Spin Energy      =      -2.0208098124680722 [Eh]
	 Correlation Energy        =      -2.6995465746864298 [Eh]
	 Total Energy              =    -652.8688875782681862 [Eh]
	 SCS Total Energy          =    -652.8205583659495232 [Eh]
  @DF-RHF Final Energy:  -650.17644482090986
    Total Energy =                       -650.1764448209098646
  @DF-RHF Final Energy:  -650.17946934469251
    Total Energy =                       -650.1794693446925066
    Molecular point group: c1
  Charge       = 0
  Multiplicity = 1
  Basis Set: AUG-CC-PVTZ
    Blend: AUG-CC-PVTZ
  Basis Set: (AUG-CC-PVTZ AUX)
    Blend: AUG-CC-PVTZ-JKFIT

    Orbital Energies (a.u.)
    -----------------------

    Doubly Occupied:

       1A    -26.325407     2A    -20.612641     3A    -15.559888
       4A    -11.348737     5A    -11.328889     6A    -11.270546
       7A    -11.268930     8A    -11.268734     9A    -11.264193
      10A    -11.255778    11A    -11.252613    12A    -11.242590
      13A    -11.236943    14A    -11.233433    15A     -1.645920
      16A     -1.430471    17A     -1.257101    18A     -1.186765
      19A     -1.112320    20A     -1.046185    21A     -1.032715
      22A     -1.024968    23A     -0.896473    24A     -0.880346
      25A     -0.853038    26A     -0.829563    27A     -0.775105
      28A     -0.750888    29A     -0.726091    30A     -0.713442
      31A     -0.698457    32A     -0.670887    33A     -0.659015
      34A     -0.638316    35A     -0.635891    36A     -0.617180
      37A     -0.613027    38A     -0.593985    39A     -0.582401
      40A     -0.549239    41A     -0.543700    42A     -0.539314
      43A     -0.514257    44A     -0.501783    45A     -0.416318
      46A     -0.403363    47A     -0.363205    48A     -0.346406
      49A     -0.316770

  @DF-RHF Final Energy:  -650.18041143282483

   => Energetics <=

    Nuclear Repulsion Energy =            815.4494711158740756
    One-Electron Energy =               -2505.5913079642991761
    Two-Electron Energy =                1039.9614254156003881
    DFT Exchange-Correlation Energy =       0.0000000000000000
    Empirical Dispersion Energy =           0.0000000000000000
    PCM Polarization Energy =               0.0000000000000000
    EFP Energy =                            0.0000000000000000
    Total Energy =                       -650.1804114328247124
  Basis Set: (AUG-CC-PVTZ AUX)
    Blend: AUG-CC-PVTZ-RI
    Molecular point group: c1

    Geometry (in Angstrom), charge = 0, multiplicity = 1:

       Center              X                  Y                   Z               Mass
    ------------   -----------------  -----------------  -----------------  -----------------
           C         -1.345306890977     0.745014998009    -0.756232976766    12.000000000000
           C         -2.417134335533     1.319856108224    -0.098746378377    12.000000000000
           C          1.268399740165     0.045657610663    -2.002524006872    12.000000000000
           C          1.547156156083    -1.544059348255    -0.262250322406    12.000000000000
           C         -1.419681244018     0.730177139126     2.003006996254    12.000000000000
           C          2.339977713633    -0.544087509001    -2.651894419718    12.000000000000
           C          2.604871101512    -2.067696115397    -0.989559140688    12.000000000000
           C         -0.288229908782     0.143881747560    -0.072214958271    12.000000000000
           C          0.847305115277    -0.452257927108    -0.772369652038    12.000000000000
           C         -2.455761341496     1.313268233238     1.288041153467    12.000000000000
           C         -0.369305672797     0.162095605427     1.314117789217    12.000000000000
           N          3.014800422053    -1.588365580491    -2.166274571010    14.003074004780
           O         -3.528539301077     1.890048356108     1.892059667241    15.994914619560
           F          0.632645616669    -0.373012111694     2.034081670828    18.998403224000
           H         -1.333840190302     0.746903777379    -1.835342325370     1.007825032070
           H         -3.227532322026     1.770694082082    -0.648415621910     1.007825032070
           H          0.777755070988     0.897078076464    -2.448997843471     1.007825032070
           H          1.272183007495    -2.001987848539     0.670274877459     1.007825032070
           H         -1.415621325812     0.714783834573     3.082427782856     1.007825032070
           H          2.677034948037    -0.157737704173    -3.603872539392     1.007825032070
           H          3.150555748571    -2.919692447700    -0.608382662906     1.007825032070
           H         -3.433073064298     1.818429100532     2.846606056027     1.007825032070

  Basis Set: AUG-CC-PVTZ
    Blend: AUG-CC-PVTZ
  Basis Set: (AUG-CC-PVTZ AUX)
    Blend: AUG-CC-PVTZ-JKFIT
  Basis Set: (AUG-CC-PVTZ AUX)
    Blend: AUG-CC-PVTZ-JKFIT
	 Reference Energy          =    -650.1804114328248261 [Eh]
	 Singles Energy            =      -0.0000000000000006 [Eh]
	 Same-Spin Energy          =      -0.6772322327540351 [Eh]
	 Opposite-Spin Energy      =      -2.0175000125499882 [Eh]
	 Correlation Energy        =      -2.6947322453040239 [Eh]
	 Total Energy              =    -652.8751436781288930 [Eh]

	 ================> DF-SCS-MP2 Energies <==================
	-----------------------------------------------------------
	 SCS Same-Spin Scale       =       0.3333333333333333 [-]
	 SCS Opposite-Spin Scale   =       1.2000000000000000 [-]
	 SCS Same-Spin Energy      =      -0.2257440775846783 [Eh]
	 SCS Opposite-Spin Energy  =      -2.4210000150599860 [Eh]
	 SCS Correlation Energy    =      -2.6467440926446648 [Eh]
	 SCS Total Energy          =    -652.8271555254694931 [Eh]
	-----------------------------------------------------------

  -Total Gradient:
     Atom            X                  Y                   Z
    ------   -----------------  -----------------  -----------------
       1        0.001127377049    -0.000617406359    -0.000606826891
       2       -0.000581234279     0.000038623476     0.001005111758
       3       -0.000386239775     0.000058171891     0.000323655326
       4       -0.002178841367     0.001380466523     0.004608496458
       5        0.000695652390    -0.000268669500    -0.000388150395
       6       -0.000071347830     0.000096343061     0.000137761058
       7       -0.000077006318     0.000248386055     0.000305203045
       8       -0.001980945957     0.000612700170    -0.000336565116
       9        0.001308531048     0.000109840040    -0.000744225507
      10       -0.000184846546     0.000013123960    -0.000754288381
      11        0.001395486079    -0.000437986755     0.001848958253
      12        0.000039718491    -0.000001476832    -0.000180089169
      13        0.000064683534     0.000064990453     0.000383322790
      14        0.000623054664    -0.001742475656    -0.004379168157
      15        0.000159798866     0.000756502642    -0.000030569493
      16        0.000156200593    -0.000035259920    -0.000308398920
      17       -0.000505168227    -0.000423908739    -0.000424336663
      18        0.000560734894     0.000130936111    -0.000291125767
      19       -0.000500821394     0.000155068070     0.000117161734
      20        0.000247440054    -0.000047533381    -0.000073080500
      21        0.000126781428    -0.000117799212    -0.000218438571
      22       -0.000039007411     0.000027363898     0.000005593104

*** Psi4 exiting successfully. Buy a developer a beer!
