                               Psi4 1.1 release

  ==> Input File <==

--------------------------------------------------------------------------

memory 5 Gb

molecule phepyr {
  symmetry C1
  0 1
  C      1.885   -1.036   -0.112
  C      0.807   -0.463   0.561
  C      2.921   -1.631   0.608
  C      0.764   -0.484   1.955
  C      2.878   -1.652   2.002
  C      2.566   -0.245   4.858
  C      0.899   -1.976   4.780
  C      2.485   -0.304   6.240
  C      0.892   -1.958   6.165
  C      1.800   -1.079   2.676
  C      1.755   -1.100   4.122
  N      1.666   -1.141   6.915
  H      1.917   -1.021   -1.198
  H      -0.001   -0.002   0.000
  H      3.760   -2.079   0.084
  H      -0.084   -0.033   2.466
  H      3.693   -2.120   2.550
  H      3.246   0.453   4.381
  H      0.252   -2.659   4.238
  H      3.096   0.344   6.861
  H      0.244   -2.622   6.726
  units Angstrom
}

dih_string = "4 10 11 6 255"
set optking { opt_coordinates = cartesian
              fixed_dihedral = $dih_string
              dynamic_level = 1
              geom_maxiter = 250
              print_trajectory_xyz_file = True }

optimize('MP2/aug-cc-PVTZ')
--------------------------------------------------------------------------

    Molecular point group: c1
  Charge       = 0
  Multiplicity = 1
  Basis Set: AUG-CC-PVTZ
    Blend: AUG-CC-PVTZ
  Basis Set: (AUG-CC-PVTZ AUX)
    Blend: AUG-CC-PVTZ-JKFIT
  @DF-RHF Final Energy:  -476.39529565872482
    Total Energy =                       -476.3952956587247627
  Basis Set: (AUG-CC-PVTZ AUX)
    Blend: AUG-CC-PVTZ-RI
    Molecular point group: c1
  Basis Set: AUG-CC-PVTZ
    Blend: AUG-CC-PVTZ
  Basis Set: (AUG-CC-PVTZ AUX)
    Blend: AUG-CC-PVTZ-JKFIT
  Basis Set: (AUG-CC-PVTZ AUX)
    Blend: AUG-CC-PVTZ-JKFIT
	 Reference Energy          =    -476.3952956587248195 [Eh]
	 Singles Energy            =      -0.0000000000000001 [Eh]
	 Same-Spin Energy          =      -0.5342654666456145 [Eh]
	 Opposite-Spin Energy      =      -1.6423565128377300 [Eh]
	 Correlation Energy        =      -2.1766219794833446 [Eh]
	 Total Energy              =    -478.5719176382081628 [Eh]
	 SCS Total Energy          =    -478.5442119630119464 [Eh]
  @DF-RHF Final Energy:  -476.39941219135829
    Total Energy =                       -476.3994121913583513
  @DF-RHF Final Energy:  -476.40039217775239
    Total Energy =                       -476.4003921777523374
  @DF-RHF Final Energy:  -476.40042145795923
    Total Energy =                       -476.4004214579591689
  @DF-RHF Final Energy:  -476.40043345631830
    Total Energy =                       -476.4004334563182965
  @DF-RHF Final Energy:  -476.40043094563055
    Total Energy =                       -476.4004309456305464
  @DF-RHF Final Energy:  -476.40042321678311
    Total Energy =                       -476.4004232167831105
  Charge       = 0
  Multiplicity = 1
  Basis Set: AUG-CC-PVTZ
    Blend: AUG-CC-PVTZ
  Basis Set: (AUG-CC-PVTZ AUX)
    Blend: AUG-CC-PVTZ-JKFIT

    Orbital Energies (a.u.)
    -----------------------

    Doubly Occupied:

       1A    -15.563212     2A    -11.272834     3A    -11.272817
       4A    -11.264215     5A    -11.251773     6A    -11.243096
       7A    -11.242961     8A    -11.241884     9A    -11.241676
      10A    -11.240302    11A    -11.237692    12A    -11.237601
      13A     -1.259794    14A     -1.174244    15A     -1.107559
      16A     -1.035136    17A     -1.026356    18A     -1.018724
      19A     -0.879617    20A     -0.860684    21A     -0.837358
      22A     -0.807886    23A     -0.731306    24A     -0.688685
      25A     -0.670424    26A     -0.654788    27A     -0.638093
      28A     -0.634150    29A     -0.598094    30A     -0.596779
      31A     -0.582625    32A     -0.542269    33A     -0.527161
      34A     -0.508168    35A     -0.507322    36A     -0.502635
      37A     -0.417870    38A     -0.383896    39A     -0.352290
      40A     -0.344161    41A     -0.339960

  @DF-RHF Final Energy:  -476.40043095783602

   => Energetics <=

    Nuclear Repulsion Energy =            605.5777257642533868
    One-Electron Energy =               -1844.8801180053269491
    Two-Electron Energy =                 762.9019612832373696
    DFT Exchange-Correlation Energy =       0.0000000000000000
    Empirical Dispersion Energy =           0.0000000000000000
    PCM Polarization Energy =               0.0000000000000000
    EFP Energy =                            0.0000000000000000
    Total Energy =                       -476.4004309578360790
  Basis Set: (AUG-CC-PVTZ AUX)
    Blend: AUG-CC-PVTZ-RI
    Molecular point group: c1
  Basis Set: AUG-CC-PVTZ
    Blend: AUG-CC-PVTZ
  Basis Set: (AUG-CC-PVTZ AUX)
    Blend: AUG-CC-PVTZ-JKFIT
  Basis Set: (AUG-CC-PVTZ AUX)
    Blend: AUG-CC-PVTZ-JKFIT
	 Reference Energy          =    -476.4004309578360221 [Eh]
	 Singles Energy            =      -0.0000000000000001 [Eh]
	 Same-Spin Energy          =      -0.5335137525542923 [Eh]
	 Opposite-Spin Energy      =      -1.6402345368723128 [Eh]
	 Correlation Energy        =      -2.1737482894266051 [Eh]
	 Total Energy              =    -478.5741792472626344 [Eh]

	 ================> DF-SCS-MP2 Energies <==================
	-----------------------------------------------------------
	 SCS Same-Spin Scale       =       0.3333333333333333 [-]
	 SCS Opposite-Spin Scale   =       1.2000000000000000 [-]
	 SCS Same-Spin Energy      =      -0.1778379175180974 [Eh]
	 SCS Opposite-Spin Energy  =      -1.9682814442467753 [Eh]
	 SCS Correlation Energy    =      -2.1461193617648728 [Eh]
	 SCS Total Energy          =    -478.5465503196008967 [Eh]
	-----------------------------------------------------------

  -Total Gradient:
     Atom            X                  Y                   Z
    ------   -----------------  -----------------  -----------------
       1        0.000022631477     0.000086614679    -0.000038377253
       2        0.000065888344    -0.000035436899     0.000031554720
       3        0.000001290745     0.000062402550     0.000050216019
       4        0.001091140129     0.002143807919     0.000043995027
       5       -0.000005287130    -0.000181523715    -0.000068917454
       6       -0.001724703167     0.001629998727     0.000065349582
       7        0.000127466442    -0.000040063753     0.000140781200
       8        0.000165816105    -0.000251523539     0.000167179177
       9       -0.000224752987     0.000258543034     0.000056164837
      10       -0.002358442018    -0.002111422252    -0.000157894427
      11        0.002862536403    -0.001426984673     0.000026879759
      12        0.000039470257     0.000033790597    -0.000257643523
      13       -0.000036395708    -0.000050673592     0.000005457057
      14       -0.000044556770    -0.000039814440     0.000025211760
      15       -0.000009682226     0.000006239395     0.000046300070
      16       -0.000031804051    -0.000079336889     0.000015264626
      17        0.000021186923     0.000033124903     0.000041102893
      18        0.000036766831     0.000002143670    -0.000018144074
      19       -0.000036033569    -0.000022271112    -0.000047728007
      20       -0.000047285630     0.000088999318    -0.000066101788
      21        0.000084749602    -0.000106613933    -0.000060650203

  **** Optimization is complete! (in 7 steps) ****
    Final optimized geometry and variables:
    Molecular point group: c1

    Geometry (in Angstrom), charge = 0, multiplicity = 1:

    C            0.114521529690     0.075218963645    -3.543177646419
    C           -0.970878721027     0.610894497775    -2.863235489289
    C            1.157685129738    -0.503891179141    -2.833328957100
    C           -1.014561221092     0.564696115628    -1.477105850134
    C            1.113796509551    -0.549740269817    -1.447173972239
    C            0.797949735712     0.803128162373     1.459685575246
    C           -0.886974942434    -0.867704714765     1.404514917793
    C            0.711686985983     0.774081933621     2.843375146801
    C           -0.904726385805    -0.825428415645     2.790386235119
    C            0.023253489430    -0.024083391737    -0.758750304874
    C           -0.011195140964    -0.042141860470     0.709426193986
    N           -0.122177825024    -0.022862891003     3.515136427752
    H            0.147756760842     0.110043345058    -4.621137747392
    H           -1.780573247642     1.068112584847    -3.411270491306
    H            2.003984742909    -0.919962808429    -3.358280149922
    H           -1.853931672369     0.985332328255    -0.943502396636
    H            1.922681786599    -0.999529142024    -0.890681694241
    H            1.485129711737     1.475658764537     0.968564445380
    H           -1.541633712172    -1.539347623954     0.869566636603
    H            1.334344684201     1.426095567919     3.439922366014
    H           -1.574697018956    -1.467695747967     3.344724844707

*** Psi4 exiting successfully. Buy a developer a beer!
