                               Psi4 1.1 release

  ==> Input File <==

--------------------------------------------------------------------------

molecule phepyr {
  symmetry C1
  0 1
  C      1.885   -1.036   -0.112
  C      0.807   -0.463   0.561
  C      2.921   -1.631   0.608
  C      0.764   -0.484   1.955
  C      2.878   -1.652   2.002
  C      2.566   -0.245   4.858
  C      0.899   -1.976   4.780
  C      2.485   -0.304   6.240
  C      0.892   -1.958   6.165
  C      1.800   -1.079   2.676
  C      1.755   -1.100   4.122
  N      1.666   -1.141   6.915
  H      1.917   -1.021   -1.198
  H      -0.001   -0.002   0.000
  H      3.760   -2.079   0.084
  H      -0.084   -0.033   2.466
  H      3.693   -2.120   2.550
  H      3.246   0.453   4.381
  H      0.252   -2.659   4.238
  H      3.096   0.344   6.861
  H      0.244   -2.622   6.726
  units Angstrom
}

dih_string = "4 10 11 6 255"
set optking fixed_dihedral = $dih_string

optimize('MP2/aug-cc-PVTZ')
--------------------------------------------------------------------------

    Molecular point group: c1
  Charge       = 0
  Multiplicity = 1
  Basis Set: AUG-CC-PVTZ
    Blend: AUG-CC-PVTZ
  Basis Set: (AUG-CC-PVTZ AUX)
    Blend: AUG-CC-PVTZ-JKFIT
  @DF-RHF Final Energy:  -476.39529565871322
    Total Energy =                       -476.3952956587131666
  Basis Set: (AUG-CC-PVTZ AUX)
    Blend: AUG-CC-PVTZ-RI
    Molecular point group: c1
  Basis Set: AUG-CC-PVTZ
    Blend: AUG-CC-PVTZ
  Basis Set: (AUG-CC-PVTZ AUX)
    Blend: AUG-CC-PVTZ-JKFIT
  Basis Set: (AUG-CC-PVTZ AUX)
    Blend: AUG-CC-PVTZ-JKFIT
	 Reference Energy          =    -476.3952956587132235 [Eh]
	 Singles Energy            =      -0.0000000000000001 [Eh]
	 Same-Spin Energy          =      -0.5342654666461706 [Eh]
	 Opposite-Spin Energy      =      -1.6423565128400246 [Eh]
	 Correlation Energy        =      -2.1766219794861952 [Eh]
	 Total Energy              =    -478.5719176381994089 [Eh]
	 SCS Total Energy          =    -478.5442119630033062 [Eh]
  @DF-RHF Final Energy:  -476.40002248734197
    Total Energy =                       -476.4000224873419711
    Molecular point group: c1
  Charge       = 0
  Multiplicity = 1
  Basis Set: AUG-CC-PVTZ
    Blend: AUG-CC-PVTZ
  Basis Set: (AUG-CC-PVTZ AUX)
    Blend: AUG-CC-PVTZ-JKFIT

    Orbital Energies (a.u.)
    -----------------------

    Doubly Occupied:

       1A    -15.563296     2A    -11.272890     3A    -11.272852
       4A    -11.264370     5A    -11.251872     6A    -11.243022
       7A    -11.242881     8A    -11.241810     9A    -11.241598
      10A    -11.240225    11A    -11.237691    12A    -11.237590
      13A     -1.259373    14A     -1.174148    15A     -1.107424
      16A     -1.035200    17A     -1.026306    18A     -1.018795
      19A     -0.879505    20A     -0.860480    21A     -0.837397
      22A     -0.807991    23A     -0.731268    24A     -0.688713
      25A     -0.670209    26A     -0.654757    27A     -0.638179
      28A     -0.634211    29A     -0.598100    30A     -0.596845
      31A     -0.582562    32A     -0.542048    33A     -0.527185
      34A     -0.507895    35A     -0.507289    36A     -0.502801
      37A     -0.417894    38A     -0.383470    39A     -0.352349
      40A     -0.344084    41A     -0.340377

  @DF-RHF Final Energy:  -476.40046353481108

   => Energetics <=

    Nuclear Repulsion Energy =            605.4656876806185437
    One-Electron Energy =               -1844.6583965445133799
    Two-Electron Energy =                 762.7922453290839258
    DFT Exchange-Correlation Energy =       0.0000000000000000
    Empirical Dispersion Energy =           0.0000000000000000
    PCM Polarization Energy =               0.0000000000000000
    EFP Energy =                            0.0000000000000000
    Total Energy =                       -476.4004635348110241
  Basis Set: (AUG-CC-PVTZ AUX)
    Blend: AUG-CC-PVTZ-RI
    Molecular point group: c1

    Geometry (in Angstrom), charge = 0, multiplicity = 1:

       Center              X                  Y                   Z               Mass
    ------------   -----------------  -----------------  -----------------  -----------------
           C          0.111960619173     0.065090114744    -3.544811173968    12.000000000000
           C         -0.969117604524     0.613457435060    -2.868147279321    12.000000000000
           C          1.151303416180    -0.515538383109    -2.830866588299    12.000000000000
           C         -1.012327491122     0.577435875333    -1.481505345282    12.000000000000
           C          1.108070004725    -0.549538586226    -1.444164089888    12.000000000000
           C          0.791874896172     0.814229554623     1.464804591127    12.000000000000
           C         -0.881458696585    -0.868471578918     1.401053675705    12.000000000000
           C          0.709691837096     0.774105391143     2.848217879089    12.000000000000
           C         -0.894935164721    -0.838957582185     2.786944862674    12.000000000000
           C          0.022331145554    -0.010535703512    -0.758919940525    12.000000000000
           C         -0.014341047555    -0.029675568069     0.710703397838    12.000000000000
           N         -0.115626391371    -0.036008342508     3.516325690827    14.003074004780
           H          0.146035924431     0.093295055038    -4.622819242331     1.007825032070
           H         -1.775500518847     1.073108444291    -3.418601942242     1.007825032070
           H          1.994307235991    -0.942246526638    -3.352450638477     1.007825032070
           H         -1.848761441390     1.009803217377    -0.952923118568     1.007825032070
           H          1.915151474970    -1.001149374609    -0.886907813893     1.007825032070
           H          1.472513354520     1.496032922417     0.977995413307     1.007825032070
           H         -1.532900561307    -1.540049517244     0.862914239548     1.007825032070
           H          1.328971775119     1.424597047845     3.449934997088     1.007825032070
           H         -1.558421725412    -1.489346067820     3.339788529274     1.007825032070

  Basis Set: AUG-CC-PVTZ
    Blend: AUG-CC-PVTZ
  Basis Set: (AUG-CC-PVTZ AUX)
    Blend: AUG-CC-PVTZ-JKFIT
  Basis Set: (AUG-CC-PVTZ AUX)
    Blend: AUG-CC-PVTZ-JKFIT
	 Reference Energy          =    -476.4004635348110810 [Eh]
	 Singles Energy            =      -0.0000000000000001 [Eh]
	 Same-Spin Energy          =      -0.5334779637402119 [Eh]
	 Opposite-Spin Energy      =      -1.6402229829479535 [Eh]
	 Correlation Energy        =      -2.1737009466881654 [Eh]
	 Total Energy              =    -478.5741644814992242 [Eh]

	 ================> DF-SCS-MP2 Energies <==================
	-----------------------------------------------------------
	 SCS Same-Spin Scale       =       0.3333333333333333 [-]
	 SCS Opposite-Spin Scale   =       1.2000000000000000 [-]
	 SCS Same-Spin Energy      =      -0.1778259879134040 [Eh]
	 SCS Opposite-Spin Energy  =      -1.9682675795375442 [Eh]
	 SCS Correlation Energy    =      -2.1460935674509480 [Eh]
	 SCS Total Energy          =    -478.5465571022620566 [Eh]
	-----------------------------------------------------------

  -Total Gradient:
     Atom            X                  Y                   Z
    ------   -----------------  -----------------  -----------------
       1       -0.000008636538    -0.000098669106    -0.000089085238
       2       -0.000189261983     0.000060593710    -0.000109571272
       3        0.000059922094    -0.000019404695    -0.000120903755
       4        0.001242131874     0.001403867389     0.000309631757
       5       -0.000302281609    -0.000110830682     0.000341596550
       6       -0.001493544639     0.001138250033    -0.000008919740
       7        0.000112570088    -0.000264527875     0.000098336813
       8        0.000648781189     0.000527533814    -0.000581406138
       9       -0.000613468646    -0.000534689187    -0.000741521523
      10       -0.002015839598    -0.001501834642    -0.001037785380
      11        0.002476375173    -0.000827471451     0.001041754094
      12        0.000061420659    -0.000032508088     0.000427763878
      13        0.000039609971     0.000042947651     0.000101440806
      14        0.000091384179    -0.000045850099     0.000104879001
      15       -0.000045293112    -0.000006259987     0.000078250381
      16        0.000030880974     0.000083089201    -0.000220890690
      17        0.000038218503     0.000063509721    -0.000240213645
      18       -0.000115260410    -0.000023408685     0.000171983127
      19        0.000043147897     0.000145098616     0.000177419873
      20       -0.000085867272     0.000001719634     0.000129313341
      21        0.000025011205    -0.000001155273     0.000167927754

*** Psi4 exiting successfully. Buy a developer a beer!
