                              Psi4 1.0.0 Driver

  ==> Input File <==

--------------------------------------------------------------------------

memory 1000 mb

molecule butane {
  symmetry C1
  0 1
  H      1.604   0.760   -8.260
  H      1.745   2.388   -8.880
  H      2.043   1.024   -9.930
  C      2.142   1.395   -8.932
  H      4.169   2.051   -9.210
  H      3.731   1.788   -7.539
  C      3.631   1.416   -8.537
  H      4.105   -0.383   -9.610
  H      5.237   0.003   -8.338
  C      4.203   -0.012   -8.612
  H      3.827   -1.919   -7.698
  H      2.395   -0.942   -7.919
  H      3.528   -0.556   -6.646
  C      3.429   -0.927   -7.645
  units Angstrom
}

dih_string = "4 7 10 14 300"
set optking fixed_dihedral = $dih_string

optimize('B3LYP/cc-PVDZ')
--------------------------------------------------------------------------

    Molecular point group: c1
  Charge       = 0
  Multiplicity = 1
  Basis Set: CC-PVDZ
   => B3LYP Composite Functional <=
  Basis Set:
  @DF-RKS Final Energy:  -158.44600971798931
    Total Energy =                       -158.4460097179893125
    Molecular point group: c1
  Basis Set: CC-PVDZ
  Basis Set:
   => B3LYP Composite Functional <=
  Basis Set: CC-PVDZ
   => B3LYP Composite Functional <=
  Basis Set:
  @DF-RKS Final Energy:  -158.45259329293606
    Total Energy =                       -158.4525932929360579
  Basis Set: CC-PVDZ
  Basis Set:
   => B3LYP Composite Functional <=
  Basis Set: CC-PVDZ
   => B3LYP Composite Functional <=
  Basis Set:
  @DF-RKS Final Energy:  -158.45590313996473
    Total Energy =                       -158.4559031399647324
  Basis Set: CC-PVDZ
  Basis Set:
  @DF-RKS Final Energy:  -158.45703604581004
    Total Energy =                       -158.4570360458100424
  @DF-RKS Final Energy:  -158.45733315491742
    Total Energy =                       -158.4573331549174213
   => B3LYP Composite Functional <=
  Basis Set:
  @DF-RKS Final Energy:  -158.45737820091077
    Total Energy =                       -158.4573782009107674
  Basis Set: CC-PVDZ
  Basis Set:
   => B3LYP Composite Functional <=
  Basis Set: CC-PVDZ
   => B3LYP Composite Functional <=
  Basis Set:
  @DF-RKS Final Energy:  -158.45738284669613
    Total Energy =                       -158.4573828466961345
  Basis Set: CC-PVDZ
  Basis Set:
   => B3LYP Composite Functional <=
  Charge       = 0
  Multiplicity = 1
  Basis Set: CC-PVDZ
   => B3LYP Composite Functional <=
  Basis Set:

    Orbital Energies (a.u.)
    -----------------------

    Doubly Occupied:

       1A    -10.180543     2A    -10.180372     3A    -10.175415
       4A    -10.175406     5A     -0.790134     6A     -0.716485
       7A     -0.637783     8A     -0.561557     9A     -0.452766
      10A     -0.449291    11A     -0.412306    12A     -0.382095
      13A     -0.378360    14A     -0.356185    15A     -0.321685
      16A     -0.321209    17A     -0.318998

  @DF-RKS Final Energy:  -158.45738177828781

   => Energetics <=

    Nuclear Repulsion Energy =            131.7347749582125402
    One-Electron Energy =                -471.9650091935504861
    Two-Electron Energy =                 202.3565304983013675
    DFT Exchange-Correlation Energy =     -20.5836780412512468
    Empirical Dispersion Energy =           0.0000000000000000
    PCM Polarization Energy =               0.0000000000000000
    EFP Energy =                            0.0000000000000000
    Total Energy =                       -158.4573817782878109
    Molecular point group: c1
  Basis Set: CC-PVDZ
  Basis Set:
   => B3LYP Composite Functional <=

  -Total Gradient:
     Atom            X                  Y                   Z
    ------   -----------------  -----------------  -----------------
       1       -0.000020987988    -0.000012980859     0.000013281217
       2       -0.000006668639     0.000022313436     0.000004489147
       3       -0.000007003576    -0.000002657816    -0.000014796425
       4       -0.000189095420    -0.000102573725     0.000764393423
       5        0.000029761057    -0.000001149835     0.000001315104
       6       -0.000007547030     0.000001992067     0.000003766271
       7        0.000086715125     0.000026931089    -0.001328444514
       8       -0.000004928317    -0.000007128592    -0.000000785847
       9        0.000017146867     0.000020733531    -0.000013116417
      10        0.000615694439     0.000263711737     0.001150716911
      11        0.000009045056    -0.000021595543    -0.000004958375
      12       -0.000027127675    -0.000006914471    -0.000001023193
      13       -0.000000084950    -0.000000414339     0.000016309072
      14       -0.000499040997    -0.000181971966    -0.000590103389

  **** Optimization is complete! (in 8 steps) ****
    Final optimized geometry and variables:
    Molecular point group: c1

    Geometry (in Angstrom), charge = 0, multiplicity = 1:

    H           -1.863666402428     0.493130038621     0.162484892158
    H           -1.551700115590     2.071082809584    -0.588432004695
    H           -1.375664447458     0.581620386015    -1.545971420182
    C           -1.209448952500     1.024072471155    -0.547983860369
    H            0.865153661762     1.569811206718    -0.825061482876
    H            0.390164537265     1.384199523121     0.864064518999
    C            0.265531227329     0.941525652062    -0.142454742867
    H            0.814872172406    -0.885670039703    -1.168937663023
    H            1.925304021790    -0.415385820848     0.119080025430
    C            0.853489966261    -0.478581668527    -0.140656161571
    H            0.667583565610    -2.436846256531     0.812112935678
    H           -0.890253969603    -1.632438488909     0.534253919020
    H            0.171095538024    -1.079956296578     1.850725368531
    C            0.161572768276    -1.457583517692     0.813095086241

*** Psi4 exiting successfully. Buy a developer a beer!
