                               Psi4 1.1 release

  ==> Input File <==

--------------------------------------------------------------------------

memory 5 Gb

molecule phepyrFOH_cation {
  symmetry C1
  1 1
  C      1.885   -1.036   -0.112
  C      0.807   -0.463   0.561
  C      3.853   -2.770   -1.361
  C      5.298   -2.251   0.495
  C      1.800   -1.079   2.676
  C      4.942   -3.334   -2.012
  C      6.350   -2.828   -0.203
  C      2.921   -1.631   0.608
  C      4.038   -2.225   -0.095
  C      0.764   -0.484   1.955
  C      2.878   -1.652   2.002
  N      6.144   -3.346   -1.421
  O      -0.289   0.076   2.612
  F      3.866   -2.220   2.709
  H      1.904   -1.012   -1.199
  H      0.002   -0.002   -0.006
  H      2.881   -2.763   -1.846
  H      5.471   -1.833   1.482
  H      1.772   -1.099   3.762
  H      4.891   -3.779   -2.996
  H      7.361   -2.892   0.176
  H      6.931   -3.766   -1.916
  H      -0.175   -0.018   3.571
  units Angstrom
}

dih_string = "1 8 9 3 330"
set optking fixed_dihedral = $dih_string

optimize('MP2/aug-cc-PVTZ')
--------------------------------------------------------------------------

    Molecular point group: c1
  Charge       = 1
  Multiplicity = 1
  Basis Set: AUG-CC-PVTZ
    Blend: AUG-CC-PVTZ
  Basis Set: (AUG-CC-PVTZ AUX)
    Blend: AUG-CC-PVTZ-JKFIT
  @DF-RHF Final Energy:  -650.55986478696627
    Total Energy =                       -650.5598647869662727
  Basis Set: (AUG-CC-PVTZ AUX)
    Blend: AUG-CC-PVTZ-RI
    Molecular point group: c1
  Basis Set: AUG-CC-PVTZ
    Blend: AUG-CC-PVTZ
  Basis Set: (AUG-CC-PVTZ AUX)
    Blend: AUG-CC-PVTZ-JKFIT
  Basis Set: (AUG-CC-PVTZ AUX)
    Blend: AUG-CC-PVTZ-JKFIT
	 Reference Energy          =    -650.5598647869662727 [Eh]
	 Singles Energy            =      -0.0000000000000009 [Eh]
	 Same-Spin Energy          =      -0.6701685254724280 [Eh]
	 Opposite-Spin Energy      =      -2.0153429722938636 [Eh]
	 Correlation Energy        =      -2.6855114977662926 [Eh]
	 Total Energy              =    -653.2453762847325152 [Eh]
	 SCS Total Energy          =    -653.2016658622096656 [Eh]
  @DF-RHF Final Energy:  -650.56660927034318
    Total Energy =                       -650.5666092703431787
  @DF-RHF Final Energy:  -650.56930602608213
    Total Energy =                       -650.5693060260821312
  @DF-RHF Final Energy:  -650.56988400480532
    Total Energy =                       -650.5698840048053171
  @DF-RHF Final Energy:  -650.56999558586608
    Total Energy =                       -650.5699955858660815
  @DF-RHF Final Energy:  -650.57005607575900
    Total Energy =                       -650.5700560757588846
  Charge       = 1
  Multiplicity = 1
  Basis Set: AUG-CC-PVTZ
    Blend: AUG-CC-PVTZ
  Basis Set: (AUG-CC-PVTZ AUX)
    Blend: AUG-CC-PVTZ-JKFIT

    Orbital Energies (a.u.)
    -----------------------

    Doubly Occupied:

       1A    -26.446948     2A    -20.718065     3A    -15.829304
       4A    -11.480108     5A    -11.478340     6A    -11.475406
       7A    -11.453844     8A    -11.448971     9A    -11.411563
      10A    -11.408311    11A    -11.387746    12A    -11.381674
      13A    -11.362730    14A    -11.353470    15A     -1.767014
      16A     -1.541777    17A     -1.507589    18A     -1.323654
      19A     -1.275838    20A     -1.237721    21A     -1.170738
      22A     -1.161542    23A     -1.065644    24A     -1.062900
      25A     -0.998457    26A     -0.973636    27A     -0.959758
      28A     -0.902005    29A     -0.872612    30A     -0.864349
      31A     -0.855780    32A     -0.833990    33A     -0.819364
      34A     -0.807047    35A     -0.790744    36A     -0.772831
      37A     -0.767976    38A     -0.753162    39A     -0.730572
      40A     -0.720715    41A     -0.708617    42A     -0.691730
      43A     -0.667352    44A     -0.647658    45A     -0.638094
      46A     -0.574257    47A     -0.537962    48A     -0.480225
      49A     -0.446162

  @DF-RHF Final Energy:  -650.57009205732322

   => Energetics <=

    Nuclear Repulsion Energy =            831.2643695186797004
    One-Electron Energy =               -2522.5370136328024273
    Two-Electron Energy =                1040.7025520567995045
    DFT Exchange-Correlation Energy =       0.0000000000000000
    Empirical Dispersion Energy =           0.0000000000000000
    PCM Polarization Energy =               0.0000000000000000
    EFP Energy =                            0.0000000000000000
    Total Energy =                       -650.5700920573231087
  Basis Set: (AUG-CC-PVTZ AUX)
    Blend: AUG-CC-PVTZ-RI
    Molecular point group: c1
  Basis Set: AUG-CC-PVTZ
    Blend: AUG-CC-PVTZ
  Basis Set: (AUG-CC-PVTZ AUX)
    Blend: AUG-CC-PVTZ-JKFIT
  Basis Set: (AUG-CC-PVTZ AUX)
    Blend: AUG-CC-PVTZ-JKFIT
	 Reference Energy          =    -650.5700920573232224 [Eh]
	 Singles Energy            =      -0.0000000000000003 [Eh]
	 Same-Spin Energy          =      -0.6687579076129310 [Eh]
	 Opposite-Spin Energy      =      -2.0123486120013094 [Eh]
	 Correlation Energy        =      -2.6811065196142407 [Eh]
	 Total Energy              =    -653.2511985769374405 [Eh]

	 ================> DF-SCS-MP2 Energies <==================
	-----------------------------------------------------------
	 SCS Same-Spin Scale       =       0.3333333333333333 [-]
	 SCS Opposite-Spin Scale   =       1.2000000000000000 [-]
	 SCS Same-Spin Energy      =      -0.2229193025376436 [Eh]
	 SCS Opposite-Spin Energy  =      -2.4148183344015712 [Eh]
	 SCS Correlation Energy    =      -2.6377376369392151 [Eh]
	 SCS Total Energy          =    -653.2078296942623865 [Eh]
	-----------------------------------------------------------

  -Total Gradient:
     Atom            X                  Y                   Z
    ------   -----------------  -----------------  -----------------
       1        0.000054594841     0.000134834605    -0.000009776290
       2        0.000040445506    -0.000029687345    -0.000016133473
       3       -0.000042046498    -0.000146287585     0.000043954425
       4       -0.000042466028     0.000001371165    -0.000007849035
       5       -0.000005128830     0.000026099958     0.000033432256
       6        0.000007800286     0.000026707549     0.000003405858
       7       -0.000008020499    -0.000014710897    -0.000031885789
       8       -0.000107578665    -0.000223850606     0.000027421345
       9        0.000126418176     0.000271222687    -0.000026208585
      10        0.000018475439     0.000021217666    -0.000018211577
      11       -0.000124941117    -0.000095321925    -0.000101967185
      12        0.000003206725    -0.000003172547     0.000012559298
      13       -0.000017004688    -0.000000350826     0.000007570233
      14        0.000089012653     0.000015815858     0.000042604092
      15        0.000007042451     0.000002294739     0.000002902311
      16       -0.000018233241     0.000012564596     0.000016471128
      17       -0.000002865198    -0.000003423492     0.000002002222
      18        0.000011459286     0.000005058309     0.000005285561
      19        0.000009924890    -0.000002224799     0.000004947940
      20       -0.000001049866    -0.000000606459    -0.000001645016
      21       -0.000000299131     0.000005695882     0.000004601077
      22        0.000002814854    -0.000008308756     0.000001113562
      23       -0.000001561352     0.000005062225     0.000005405631

  **** Optimization is complete! (in 7 steps) ****
    Final optimized geometry and variables:
    Molecular point group: c1

    Geometry (in Angstrom), charge = 1, multiplicity = 1:

    C           -1.333183136414     0.764421528361    -0.748305076188
    C           -2.402330785376     1.339233867151    -0.103588832664
    C            0.659449527135    -0.984015588309    -2.019179647613
    C            2.131498958735    -0.471114871032    -0.208100598599
    C           -1.443654321851     0.722027527192     2.019000129549
    C            1.714182039638    -1.533351841272    -2.702772352983
    C            3.165172685641    -1.027053999232    -0.919638866956
    C           -0.279449728115     0.162914490726    -0.044192498295
    C            0.836395849590    -0.430117376778    -0.743740506206
    C           -2.466130806018     1.316907317001     1.289405425373
    C           -0.379369646437     0.171322644584     1.346060699360
    N            2.932631018859    -1.540792779788    -2.138166577170
    O           -3.538690285906     1.888106763812     1.856960610934
    F            0.578465352418    -0.424274185741     2.077298071627
    H           -1.285620104394     0.821662103498    -1.825010192256
    H           -3.194816898603     1.818803182781    -0.654807245197
    H           -0.316530761771    -1.016724957775    -2.474420104483
    H            2.344602511270    -0.050248006144     0.758483112422
    H           -1.464064729596     0.672675951885     3.096729867091
    H            1.624600484345    -1.980076374714    -3.678823524874
    H            4.178366354203    -1.071578740282    -0.556673076846
    H            3.703576335653    -1.951833741724    -2.648628855382
    H           -3.492215162807     1.826778622297     2.817826355175

*** Psi4 exiting successfully. Buy a developer a beer!
