                               Psi4 1.1 release

  ==> Input File <==

--------------------------------------------------------------------------

memory 1000 mb

molecule butane {
  symmetry C1
  0 1
  H      3.283   1.558   -10.652
  H      3.407   3.105   -9.848
  H      4.844   2.157   -10.148
  C      3.805   2.112   -9.901
  H      4.154   1.970   -7.785
  H      2.592   1.371   -8.288
  C      3.631   1.416   -8.537
  H      3.665   -0.647   -7.940
  H      4.104   -0.384   -9.610
  C      4.203   -0.012   -8.612
  H      6.088   -0.983   -8.270
  H      5.791   0.381   -7.220
  H      6.230   0.644   -8.890
  C      5.691   0.009   -8.218
  units Angstrom
}

dih_string = "14 10 7 4 90"
set optking fixed_dihedral = $dih_string

optimize('MP2/aug-cc-pvtz')
--------------------------------------------------------------------------

    Molecular point group: c1
  Charge       = 0
  Multiplicity = 1
  Basis Set: AUG-CC-PVTZ
    Blend: AUG-CC-PVTZ
  Basis Set: (AUG-CC-PVTZ AUX)
    Blend: AUG-CC-PVTZ-JKFIT
  @DF-RHF Final Energy:  -157.34914571581692
    Total Energy =                       -157.3491457158169169
  Basis Set: (AUG-CC-PVTZ AUX)
    Blend: AUG-CC-PVTZ-RI
    Molecular point group: c1
  Basis Set: AUG-CC-PVTZ
    Blend: AUG-CC-PVTZ
  Basis Set: (AUG-CC-PVTZ AUX)
    Blend: AUG-CC-PVTZ-JKFIT
  Basis Set: (AUG-CC-PVTZ AUX)
    Blend: AUG-CC-PVTZ-JKFIT
	 Reference Energy          =    -157.3491457158169169 [Eh]
	 Singles Energy            =      -0.0000000000000001 [Eh]
	 Same-Spin Energy          =      -0.1657877338555048 [Eh]
	 Opposite-Spin Energy      =      -0.6395435272143383 [Eh]
	 Correlation Energy        =      -0.8053312610698432 [Eh]
	 Total Energy              =    -158.1544769768867695 [Eh]
	 SCS Total Energy          =    -158.1718605264259452 [Eh]
  @DF-RHF Final Energy:  -157.35178244877855
    Total Energy =                       -157.3517824487785504
  @DF-RHF Final Energy:  -157.35266867284312
    Total Energy =                       -157.3526686728431230
  @DF-RHF Final Energy:  -157.35296919781626
    Total Energy =                       -157.3529691978162646
  @DF-RHF Final Energy:  -157.35301494729123
    Total Energy =                       -157.3530149472912285
  @DF-RHF Final Energy:  -157.35301156654975
    Total Energy =                       -157.3530115665497533
  @DF-RHF Final Energy:  -157.35300556644415
    Total Energy =                       -157.3530055664441534
  Charge       = 0
  Multiplicity = 1
  Basis Set: AUG-CC-PVTZ
    Blend: AUG-CC-PVTZ
  Basis Set: (AUG-CC-PVTZ AUX)
    Blend: AUG-CC-PVTZ-JKFIT

    Orbital Energies (a.u.)
    -----------------------

    Doubly Occupied:

       1A    -11.211309     2A    -11.210697     3A    -11.206241
       4A    -11.206238     5A     -1.073654     6A     -0.978977
       7A     -0.867349     8A     -0.782461     9A     -0.626794
      10A     -0.616956    11A     -0.577958    12A     -0.539186
      13A     -0.522268    14A     -0.506072    15A     -0.467373
      16A     -0.456174    17A     -0.454251

  @DF-RHF Final Energy:  -157.35299870952147

   => Energetics <=

    Nuclear Repulsion Energy =            132.8227658389569115
    One-Electron Energy =                -473.7436100679932451
    Two-Electron Energy =                 183.5678455195148615
    DFT Exchange-Correlation Energy =       0.0000000000000000
    Empirical Dispersion Energy =           0.0000000000000000
    PCM Polarization Energy =               0.0000000000000000
    EFP Energy =                            0.0000000000000000
    Total Energy =                       -157.3529987095214722
  Basis Set: (AUG-CC-PVTZ AUX)
    Blend: AUG-CC-PVTZ-RI
    Molecular point group: c1
  Basis Set: AUG-CC-PVTZ
    Blend: AUG-CC-PVTZ
  Basis Set: (AUG-CC-PVTZ AUX)
    Blend: AUG-CC-PVTZ-JKFIT
  Basis Set: (AUG-CC-PVTZ AUX)
    Blend: AUG-CC-PVTZ-JKFIT
	 Reference Energy          =    -157.3529987095214722 [Eh]
	 Singles Energy            =      -0.0000000000000000 [Eh]
	 Same-Spin Energy          =      -0.1656664189024076 [Eh]
	 Opposite-Spin Energy      =      -0.6398759622793427 [Eh]
	 Correlation Energy        =      -0.8055423811817504 [Eh]
	 Total Energy              =    -158.1585410907032099 [Eh]

	 ================> DF-SCS-MP2 Energies <==================
	-----------------------------------------------------------
	 SCS Same-Spin Scale       =       0.3333333333333333 [-]
	 SCS Opposite-Spin Scale   =       1.2000000000000000 [-]
	 SCS Same-Spin Energy      =      -0.0552221396341359 [Eh]
	 SCS Opposite-Spin Energy  =      -0.7678511547352113 [Eh]
	 SCS Correlation Energy    =      -0.8230732943693472 [Eh]
	 SCS Total Energy          =    -158.1760720038908232 [Eh]
	-----------------------------------------------------------

  -Total Gradient:
     Atom            X                  Y                   Z
    ------   -----------------  -----------------  -----------------
       1       -0.000000774582     0.000000181971     0.000008486348
       2        0.000000492652    -0.000000780506     0.000001430722
       3       -0.000004082176     0.000004262575    -0.000005862177
       4       -0.002123806717    -0.000924449129    -0.000708391280
       5       -0.000013737775    -0.000003282302     0.000001033494
       6       -0.000004726907     0.000003658027    -0.000005164257
       7        0.002705492731     0.001174126101     0.001849971954
       8        0.000004533969    -0.000003836392     0.000005340387
       9       -0.000006826145    -0.000005498813     0.000011028581
      10        0.000080580188     0.000025923248    -0.003480316283
      11       -0.000001774914     0.000000676965    -0.000000938453
      12       -0.000006687892    -0.000003340413    -0.000004176764
      13        0.000005720619    -0.000003362611     0.000004796329
      14       -0.000634403052    -0.000264278721     0.002322761401

  **** Optimization is complete! (in 8 steps) ****
    Final optimized geometry and variables:
    Molecular point group: c1

    Geometry (in Angstrom), charge = 0, multiplicity = 1:

    H           -1.118084521569     0.657229349631    -1.871202386931
    H           -0.953992662843     2.224032908786    -1.084376860983
    H            0.472519530360     1.249756642617    -1.411038822128
    C           -0.572089901867     1.205895082900    -1.106632019660
    H           -0.251661576282     1.120886413569     1.020231002870
    H           -1.780360459571     0.463158509097     0.488350423895
    C           -0.720865194187     0.520149488445     0.240215121782
    H           -0.662664757156    -1.515638760688     0.941488718273
    H           -0.227203003204    -1.327184397441    -0.739963796746
    C           -0.113312164369    -0.879521071268     0.248007842433
    H            1.790037617600    -1.863856047625     0.595058479498
    H            1.458658686005    -0.510507445802     1.671873205936
    H            1.931406883718    -0.214121540902     0.004082410060
    C            1.350949782146    -0.870354835757     0.650785235241

*** Psi4 exiting successfully. Buy a developer a beer!
