                               Psi4 1.1 release

  ==> Input File <==

--------------------------------------------------------------------------

memory 5000 mb

molecule butane {
  symmetry C1
  0 1
  H      1.958   2.147   -9.670
  H      1.892   0.434   -9.332
  H      1.541   1.588   -8.069
  C      2.142   1.395   -8.932
  H      4.169   2.051   -9.210
  H      3.731   1.788   -7.539
  C      3.631   1.416   -8.537
  H      3.665   -0.647   -7.940
  H      4.104   -0.384   -9.610
  C      4.203   -0.012   -8.612
  H      6.088   -0.983   -8.270
  H      5.791   0.381   -7.220
  H      6.230   0.644   -8.890
  C      5.691   0.009   -8.218
  units Angstrom
}

dih_string = "10 7 4 3 110"
set optking fixed_dihedral = $dih_string

optimize('MP2/aug-cc-pvtz')
--------------------------------------------------------------------------

    Molecular point group: c1
  Charge       = 0
  Multiplicity = 1
  Basis Set: AUG-CC-PVTZ
    Blend: AUG-CC-PVTZ
  Basis Set: (AUG-CC-PVTZ AUX)
    Blend: AUG-CC-PVTZ-JKFIT
  @DF-RHF Final Energy:  -157.34758281864703
    Total Energy =                       -157.3475828186470267
  Basis Set: (AUG-CC-PVTZ AUX)
    Blend: AUG-CC-PVTZ-RI
    Molecular point group: c1
  Basis Set: AUG-CC-PVTZ
    Blend: AUG-CC-PVTZ
  Basis Set: (AUG-CC-PVTZ AUX)
    Blend: AUG-CC-PVTZ-JKFIT
  Basis Set: (AUG-CC-PVTZ AUX)
    Blend: AUG-CC-PVTZ-JKFIT
	 Reference Energy          =    -157.3475828186470267 [Eh]
	 Singles Energy            =      -0.0000000000000001 [Eh]
	 Same-Spin Energy          =      -0.1654789625648107 [Eh]
	 Opposite-Spin Energy      =      -0.6394426411031564 [Eh]
	 Correlation Energy        =      -0.8049216036679673 [Eh]
	 Total Energy              =    -158.1525044223149905 [Eh]
	 SCS Total Energy          =    -158.1700736421590818 [Eh]
  @DF-RHF Final Energy:  -157.35048307796737
    Total Energy =                       -157.3504830779673682
  @DF-RHF Final Energy:  -157.35137807058786
    Total Energy =                       -157.3513780705878560
  @DF-RHF Final Energy:  -157.35166700042643
    Total Energy =                       -157.3516670004264313
  @DF-RHF Final Energy:  -157.35165114495388
    Total Energy =                       -157.3516511449538768
  Charge       = 0
  Multiplicity = 1
  Basis Set: AUG-CC-PVTZ
    Blend: AUG-CC-PVTZ
  Basis Set: (AUG-CC-PVTZ AUX)
    Blend: AUG-CC-PVTZ-JKFIT

    Orbital Energies (a.u.)
    -----------------------

    Doubly Occupied:

       1A    -11.211650     2A    -11.210866     3A    -11.205864
       4A    -11.205527     5A     -1.072662     6A     -0.980332
       7A     -0.862036     8A     -0.788809     9A     -0.638745
      10A     -0.583923    11A     -0.577899    12A     -0.569062
      13A     -0.511899    14A     -0.496591    15A     -0.470417
      16A     -0.457510    17A     -0.455333

  @DF-RHF Final Energy:  -157.35166006665034

   => Energetics <=

    Nuclear Repulsion Energy =            131.2803570723801840
    One-Electron Energy =                -470.6657832770325740
    Two-Electron Energy =                 182.0337661380020506
    DFT Exchange-Correlation Energy =       0.0000000000000000
    Empirical Dispersion Energy =           0.0000000000000000
    PCM Polarization Energy =               0.0000000000000000
    EFP Energy =                            0.0000000000000000
    Total Energy =                       -157.3516600666503393
  Basis Set: (AUG-CC-PVTZ AUX)
    Blend: AUG-CC-PVTZ-RI
    Molecular point group: c1
  Basis Set: AUG-CC-PVTZ
    Blend: AUG-CC-PVTZ
  Basis Set: (AUG-CC-PVTZ AUX)
    Blend: AUG-CC-PVTZ-JKFIT
  Basis Set: (AUG-CC-PVTZ AUX)
    Blend: AUG-CC-PVTZ-JKFIT
	 Reference Energy          =    -157.3516600666503393 [Eh]
	 Singles Energy            =      -0.0000000000000000 [Eh]
	 Same-Spin Energy          =      -0.1654376327339974 [Eh]
	 Opposite-Spin Energy      =      -0.6398408101911051 [Eh]
	 Correlation Energy        =      -0.8052784429251025 [Eh]
	 Total Energy              =    -158.1569385095754399 [Eh]

	 ================> DF-SCS-MP2 Energies <==================
	-----------------------------------------------------------
	 SCS Same-Spin Scale       =       0.3333333333333333 [-]
	 SCS Opposite-Spin Scale   =       1.2000000000000000 [-]
	 SCS Same-Spin Energy      =      -0.0551458775779991 [Eh]
	 SCS Opposite-Spin Energy  =      -0.7678089722293261 [Eh]
	 SCS Correlation Energy    =      -0.8229548498073253 [Eh]
	 SCS Total Energy          =    -158.1746149164576707 [Eh]
	-----------------------------------------------------------

  -Total Gradient:
     Atom            X                  Y                   Z
    ------   -----------------  -----------------  -----------------
       1        0.000001829352    -0.000012973542     0.000005241451
       2       -0.000004622374    -0.000000213207     0.000002899548
       3        0.000094301675     0.001862015925    -0.000368449830
       4       -0.000019699176    -0.002258922468    -0.000052976150
       5       -0.000004000813    -0.000010225317     0.000013233027
       6        0.000000439229    -0.000004479530     0.000000434784
       7       -0.000424350775     0.000229681343     0.001722422821
       8       -0.000000559916     0.000011329189    -0.000002567454
       9        0.000000290747    -0.000000638447     0.000007381893
      10        0.000347926033     0.000193770281    -0.001335370027
      11        0.000008654241     0.000001952140     0.000004274082
      12        0.000005461515    -0.000001034143    -0.000001416832
      13       -0.000001081089    -0.000003932416     0.000004212136
      14       -0.000004588646    -0.000006329810     0.000000680553

  **** Optimization is complete! (in 6 steps) ****
    Final optimized geometry and variables:
    Molecular point group: c1

    Geometry (in Angstrom), charge = 0, multiplicity = 1:

    H           -2.012780836598     1.455193547250    -1.098095653633
    H           -2.084359670718    -0.266642576887    -0.775677121080
    H           -2.423897464445     0.892000921448     0.503037075324
    C           -1.788975831786     0.692809573804    -0.356208418255
    H            0.253439584786     1.340538017657    -0.650484971485
    H           -0.169623307532     1.102926462653     1.023018104357
    C           -0.305547654680     0.690765019381     0.023267211009
    H           -0.244114422905    -1.360778080320     0.628016310276
    H            0.203200389474    -1.089045105800    -1.039883423886
    C            0.315350984232    -0.693210822702    -0.029552414490
    H            2.210774769006    -1.689001539192     0.311660333242
    H            1.905098306880    -0.324283563172     1.380557703051
    H            2.353883800237    -0.043049872413    -0.295707853035
    C            1.779876203618    -0.691863599842     0.363632421767

*** Psi4 exiting successfully. Buy a developer a beer!
