                               Psi4 1.1 release

  ==> Input File <==

--------------------------------------------------------------------------

molecule phepyr {
  symmetry C1
  0 1
  C      1.885   -1.036   -0.112
  C      0.807   -0.463   0.561
  C      2.921   -1.631   0.608
  C      0.764   -0.484   1.955
  C      2.878   -1.652   2.002
  C      2.762   -0.490   4.861
  C      0.703   -1.731   4.778
  C      2.672   -0.538   6.243
  C      0.706   -1.723   6.163
  C      1.800   -1.079   2.676
  C      1.755   -1.100   4.122
  N      1.667   -1.141   6.915
  H      1.917   -1.021   -1.198
  H      -0.001   -0.002   0.000
  H      3.760   -2.079   0.084
  H      -0.084   -0.033   2.466
  H      3.693   -2.120   2.550
  H      3.598   0.013   4.385
  H      -0.100   -2.218   4.234
  H      3.432   -0.075   6.865
  H      -0.091   -2.202   6.722
  units Angstrom
}

dih_string = "4 10 11 6 240"
set optking fixed_dihedral = $dih_string

optimize('MP2/aug-cc-PVTZ')
--------------------------------------------------------------------------

    Molecular point group: c1
  Charge       = 0
  Multiplicity = 1
  Basis Set: AUG-CC-PVTZ
    Blend: AUG-CC-PVTZ
  Basis Set: (AUG-CC-PVTZ AUX)
    Blend: AUG-CC-PVTZ-JKFIT
  @DF-RHF Final Energy:  -476.39662247992544
    Total Energy =                       -476.3966224799254405
  Basis Set: (AUG-CC-PVTZ AUX)
    Blend: AUG-CC-PVTZ-RI
    Molecular point group: c1
  Basis Set: AUG-CC-PVTZ
    Blend: AUG-CC-PVTZ
  Basis Set: (AUG-CC-PVTZ AUX)
    Blend: AUG-CC-PVTZ-JKFIT
  Basis Set: (AUG-CC-PVTZ AUX)
    Blend: AUG-CC-PVTZ-JKFIT
	 Reference Energy          =    -476.3966224799254405 [Eh]
	 Singles Energy            =      -0.0000000000000000 [Eh]
	 Same-Spin Energy          =      -0.5345213903135213 [Eh]
	 Opposite-Spin Energy      =      -1.6424107956657907 [Eh]
	 Correlation Energy        =      -2.1769321859793118 [Eh]
	 Total Energy              =    -478.5735546659047372 [Eh]
	 SCS Total Energy          =    -478.5456892314955439 [Eh]
  @DF-RHF Final Energy:  -476.40120110177878
    Total Energy =                       -476.4012011017787245
  @DF-RHF Final Energy:  -476.40163643370920
    Total Energy =                       -476.4016364337092000
  @DF-RHF Final Energy:  -476.40156514186026
    Total Energy =                       -476.4015651418602602
  @DF-RHF Final Energy:  -476.40156156358523
    Total Energy =                       -476.4015615635852328
  @DF-RHF Final Energy:  -476.40152897437264
    Total Energy =                       -476.4015289743726953
  @DF-RHF Final Energy:  -476.40159178218693
    Total Energy =                       -476.4015917821869834
  @DF-RHF Final Energy:  -476.40153898924194
    Total Energy =                       -476.4015389892419989
  @DF-RHF Final Energy:  -476.40154751238998
    Total Energy =                       -476.4015475123900387
  Charge       = 0
  Multiplicity = 1
  Basis Set: AUG-CC-PVTZ
    Blend: AUG-CC-PVTZ
  Basis Set: (AUG-CC-PVTZ AUX)
    Blend: AUG-CC-PVTZ-JKFIT

    Orbital Energies (a.u.)
    -----------------------

    Doubly Occupied:

       1A    -15.562721     2A    -11.272668     3A    -11.272645
       4A    -11.264437     5A    -11.252133     6A    -11.243692
       7A    -11.243547     8A    -11.242584     9A    -11.242240
      10A    -11.241134    11A    -11.237521    12A    -11.237324
      13A     -1.259414    14A     -1.175038    15A     -1.107942
      16A     -1.035875    17A     -1.026461    18A     -1.018752
      19A     -0.880385    20A     -0.863683    21A     -0.834614
      22A     -0.808163    23A     -0.732406    24A     -0.687536
      25A     -0.671734    26A     -0.657160    27A     -0.634488
      28A     -0.633833    29A     -0.599880    30A     -0.595764
      31A     -0.582905    32A     -0.543952    33A     -0.525969
      34A     -0.510490    35A     -0.509317    36A     -0.500870
      37A     -0.418043    38A     -0.392737    39A     -0.350975
      40A     -0.346040    41A     -0.332995

  @DF-RHF Final Energy:  -476.40154485362450

   => Energetics <=

    Nuclear Repulsion Energy =            606.0480269822338641
    One-Electron Energy =               -1845.7990167664122509
    Two-Electron Energy =                 763.3494449305537728
    DFT Exchange-Correlation Energy =       0.0000000000000000
    Empirical Dispersion Energy =           0.0000000000000000
    PCM Polarization Energy =               0.0000000000000000
    EFP Energy =                            0.0000000000000000
    Total Energy =                       -476.4015448536245003
  Basis Set: (AUG-CC-PVTZ AUX)
    Blend: AUG-CC-PVTZ-RI
    Molecular point group: c1
  Basis Set: AUG-CC-PVTZ
    Blend: AUG-CC-PVTZ
  Basis Set: (AUG-CC-PVTZ AUX)
    Blend: AUG-CC-PVTZ-JKFIT
  Basis Set: (AUG-CC-PVTZ AUX)
    Blend: AUG-CC-PVTZ-JKFIT
	 Reference Energy          =    -476.4015448536245003 [Eh]
	 Singles Energy            =      -0.0000000000000002 [Eh]
	 Same-Spin Energy          =      -0.5338635475161644 [Eh]
	 Opposite-Spin Energy      =      -1.6404420502420338 [Eh]
	 Correlation Energy        =      -2.1743055977581980 [Eh]
	 Total Energy              =    -478.5758504513826779 [Eh]

	 ================> DF-SCS-MP2 Energies <==================
	-----------------------------------------------------------
	 SCS Same-Spin Scale       =       0.3333333333333333 [-]
	 SCS Opposite-Spin Scale   =       1.2000000000000000 [-]
	 SCS Same-Spin Energy      =      -0.1779545158387215 [Eh]
	 SCS Opposite-Spin Energy  =      -1.9685304602904405 [Eh]
	 SCS Correlation Energy    =      -2.1464849761291620 [Eh]
	 SCS Total Energy          =    -478.5480298297536592 [Eh]
	-----------------------------------------------------------

  -Total Gradient:
     Atom            X                  Y                   Z
    ------   -----------------  -----------------  -----------------
       1        0.000011997162    -0.000031203132    -0.000035548320
       2       -0.000020509999     0.000038672052    -0.000001823061
       3        0.000005226331     0.000037737801    -0.000007458329
       4        0.001463132629     0.002649243631     0.000066452099
       5        0.000067707040     0.000004087731     0.000018544985
       6       -0.001601500517     0.002585973397     0.000006906533
       7       -0.000051175211     0.000053210888     0.000003714834
       8       -0.000084287512     0.000163020634     0.000043344333
       9        0.000063686339    -0.000065887298     0.000056092975
      10       -0.003079332603    -0.002627664819    -0.000149335946
      11        0.003214427511    -0.002677956029     0.000043497446
      12       -0.000005745332    -0.000050751295    -0.000042833758
      13        0.000002733075    -0.000004522199    -0.000004894024
      14       -0.000001280542    -0.000003668751     0.000009799124
      15        0.000016265740    -0.000014052621    -0.000003105137
      16       -0.000017734132    -0.000011309319     0.000018114472
      17       -0.000007636053    -0.000005662304     0.000006804780
      18        0.000027102223    -0.000015140665    -0.000020377666
      19        0.000001452417     0.000000449659    -0.000009559021
      20        0.000037365621    -0.000048966159    -0.000005010814
      21       -0.000041894188     0.000024388799     0.000006674498

  **** Optimization is complete! (in 10 steps) ****
    Final optimized geometry and variables:
    Molecular point group: c1

    Geometry (in Angstrom), charge = 0, multiplicity = 1:

    C            0.114602594617     0.088322369356    -3.541649313899
    C           -0.976557032104     0.609183070129    -2.858872451341
    C            1.161837837560    -0.487378538127    -2.834558040591
    C           -1.023215142213     0.548928571683    -1.473830735759
    C            1.115670268779    -0.545221422670    -1.449421660470
    C            0.989999486275     0.541909377195     1.458806922294
    C           -1.078922843741    -0.619504051631     1.403597795579
    C            0.899068166779     0.536609525361     2.842153938301
    C           -1.083670615461    -0.576340195615     2.789188909626
    C            0.017245621643    -0.039113572578    -0.757478466454
    C           -0.013639184807    -0.059298352716     0.707074446627
    N           -0.115725092736    -0.011443831695     3.514602535118
    H            0.150592955147     0.134523869303    -4.619112216520
    H           -1.786325559531     1.069003588372    -3.404446051086
    H            2.012100271761    -0.892449672896    -3.361743785314
    H           -1.863646328263     0.965562238241    -0.938619306517
    H            1.925781925697    -0.997046331368    -0.896287431433
    H            1.828108738909     1.014147542619     0.968619097771
    H           -1.887866614616    -1.095489164294     0.869895176908
    H            1.672449181820     0.999922632720     3.438807864188
    H           -1.900893531498    -1.016508786851     3.343501464977

*** Psi4 exiting successfully. Buy a developer a beer!
