                               Psi4 1.1 release

  ==> Input File <==

--------------------------------------------------------------------------

memory 1000 mb

molecule butane {
  symmetry C1
  0 1
  H      2.251   0.951   -6.958
  H      1.814   2.364   -7.889
  H      1.583   0.768   -8.561
  C      2.211   1.371   -7.941
  H      3.591   1.836   -9.521
  H      4.260   2.020   -7.917
  C      3.631   1.416   -8.537
  H      3.665   -0.647   -7.940
  H      4.104   -0.384   -9.610
  C      4.203   -0.012   -8.612
  H      6.088   -0.983   -8.270
  H      5.791   0.381   -7.220
  H      6.230   0.644   -8.890
  C      5.691   0.009   -8.218
  units Angstrom
}

dih_string = "14 10 7 4 220"
set optking fixed_dihedral = $dih_string

optimize('MP2/aug-cc-pvtz')
--------------------------------------------------------------------------

    Molecular point group: c1
  Charge       = 0
  Multiplicity = 1
  Basis Set: AUG-CC-PVTZ
    Blend: AUG-CC-PVTZ
  Basis Set: (AUG-CC-PVTZ AUX)
    Blend: AUG-CC-PVTZ-JKFIT
  @DF-RHF Final Energy:  -157.34825645358794
    Total Energy =                       -157.3482564535879362
  Basis Set: (AUG-CC-PVTZ AUX)
    Blend: AUG-CC-PVTZ-RI
    Molecular point group: c1
  Basis Set: AUG-CC-PVTZ
    Blend: AUG-CC-PVTZ
  Basis Set: (AUG-CC-PVTZ AUX)
    Blend: AUG-CC-PVTZ-JKFIT
  Basis Set: (AUG-CC-PVTZ AUX)
    Blend: AUG-CC-PVTZ-JKFIT
	 Reference Energy          =    -157.3482564535879362 [Eh]
	 Singles Energy            =      -0.0000000000000001 [Eh]
	 Same-Spin Energy          =      -0.1654920968487019 [Eh]
	 Opposite-Spin Energy      =      -0.6395104042488042 [Eh]
	 Correlation Energy        =      -0.8050025010975063 [Eh]
	 Total Energy              =    -158.1532589546854410 [Eh]
	 SCS Total Energy          =    -158.1708329709693999 [Eh]
  @DF-RHF Final Energy:  -157.35098127924766
    Total Energy =                       -157.3509812792476623
  @DF-RHF Final Energy:  -157.35185371327145
    Total Energy =                       -157.3518537132714528
  @DF-RHF Final Energy:  -157.35218116178544
    Total Energy =                       -157.3521811617854382
  @DF-RHF Final Energy:  -157.35222341100646
    Total Energy =                       -157.3522234110064630
  Charge       = 0
  Multiplicity = 1
  Basis Set: AUG-CC-PVTZ
    Blend: AUG-CC-PVTZ
  Basis Set: (AUG-CC-PVTZ AUX)
    Blend: AUG-CC-PVTZ-JKFIT

    Orbital Energies (a.u.)
    -----------------------

    Doubly Occupied:

       1A    -11.211245     2A    -11.210642     3A    -11.206518
       4A    -11.206512     5A     -1.072290     6A     -0.982185
       7A     -0.860990     8A     -0.788194     9A     -0.636759
      10A     -0.589588    11A     -0.583654    12A     -0.559695
      13A     -0.511992    14A     -0.502954    15A     -0.465456
      16A     -0.457839    17A     -0.455702

  @DF-RHF Final Energy:  -157.35223269357800

   => Energetics <=

    Nuclear Repulsion Energy =            131.5504082194109685
    One-Electron Energy =                -471.2008455911084752
    Two-Electron Energy =                 182.2982046781195322
    DFT Exchange-Correlation Energy =       0.0000000000000000
    Empirical Dispersion Energy =           0.0000000000000000
    PCM Polarization Energy =               0.0000000000000000
    EFP Energy =                            0.0000000000000000
    Total Energy =                       -157.3522326935780029
  Basis Set: (AUG-CC-PVTZ AUX)
    Blend: AUG-CC-PVTZ-RI
    Molecular point group: c1
  Basis Set: AUG-CC-PVTZ
    Blend: AUG-CC-PVTZ
  Basis Set: (AUG-CC-PVTZ AUX)
    Blend: AUG-CC-PVTZ-JKFIT
  Basis Set: (AUG-CC-PVTZ AUX)
    Blend: AUG-CC-PVTZ-JKFIT
	 Reference Energy          =    -157.3522326935780029 [Eh]
	 Singles Energy            =      -0.0000000000000000 [Eh]
	 Same-Spin Energy          =      -0.1654223254923584 [Eh]
	 Opposite-Spin Energy      =      -0.6398898619696735 [Eh]
	 Correlation Energy        =      -0.8053121874620319 [Eh]
	 Total Energy              =    -158.1575448810400246 [Eh]

	 ================> DF-SCS-MP2 Energies <==================
	-----------------------------------------------------------
	 SCS Same-Spin Scale       =       0.3333333333333333 [-]
	 SCS Opposite-Spin Scale   =       1.2000000000000000 [-]
	 SCS Same-Spin Energy      =      -0.0551407751641195 [Eh]
	 SCS Opposite-Spin Energy  =      -0.7678678343636082 [Eh]
	 SCS Correlation Energy    =      -0.8230086095277276 [Eh]
	 SCS Total Energy          =    -158.1752413031057358 [Eh]
	-----------------------------------------------------------

  -Total Gradient:
     Atom            X                  Y                   Z
    ------   -----------------  -----------------  -----------------
       1       -0.000017977903     0.000003015298    -0.000005422809
       2       -0.000000990992    -0.000008694185     0.000000303645
       3        0.000015147190     0.000003180681     0.000005094818
       4        0.001014557492     0.000318139579     0.002411242044
       5       -0.000014240600     0.000008481336     0.000001398552
       6       -0.000008276640    -0.000017344610    -0.000045657731
       7       -0.001618442307    -0.000562082917    -0.002328665590
       8        0.000002084883     0.000019536787    -0.000045981830
       9        0.000014378478    -0.000007942019    -0.000000198941
      10        0.001276277892     0.000671746352    -0.002504323930
      11        0.000000729236     0.000009949676     0.000000919909
      12        0.000017125132    -0.000003059863    -0.000008357192
      13       -0.000013745968    -0.000003135609     0.000006890456
      14       -0.000666625894    -0.000431790508     0.002512758599

  **** Optimization is complete! (in 6 steps) ****
    Final optimized geometry and variables:
    Molecular point group: c1

    Geometry (in Angstrom), charge = 0, multiplicity = 1:

    H           -1.725115203870     0.281864298615     1.380013561709
    H           -2.178244518095     1.671171434164     0.396165043858
    H           -2.390600458950     0.039421290420    -0.229048646264
    C           -1.738457843133     0.676765320917     0.366064132088
    H           -0.336705097860     1.164192563105    -1.193077607143
    H            0.289655142789     1.335121863325     0.424758263653
    C           -0.333578635103     0.700480055816    -0.207301736677
    H           -0.231285639049    -1.353898476865     0.400409449127
    H            0.161761666029    -1.107902599885    -1.280045304106
    C            0.298848700210    -0.689303098887    -0.283665891638
    H            2.206950496066    -1.680409997811     0.009686722786
    H            1.901211577067    -0.338528877543     1.109378254593
    H            2.334459423227    -0.021358691575    -0.564666998206
    C            1.770492905344    -0.687074944124     0.086809999456

*** Psi4 exiting successfully. Buy a developer a beer!
