                               Psi4 1.1 release

  ==> Input File <==

--------------------------------------------------------------------------

memory 1000 mb

molecule butane {
  symmetry C1
  0 1
  H      1.604   0.760   -8.260
  H      1.745   2.388   -8.880
  H      2.043   1.024   -9.930
  C      2.142   1.395   -8.932
  H      4.169   2.051   -9.210
  H      3.731   1.788   -7.539
  C      3.631   1.416   -8.537
  H      3.665   -0.647   -7.940
  H      4.104   -0.384   -9.610
  C      4.203   -0.012   -8.612
  H      5.796   -0.309   -7.202
  H      6.074   1.002   -8.322
  H      6.239   -0.652   -8.856
  C      5.691   0.009   -8.218
  units Angstrom
}

dih_string = "7 10 14 13 220"
set optking fixed_dihedral = $dih_string

optimize('MP2/aug-cc-pvtz')
--------------------------------------------------------------------------

    Molecular point group: c1
  Charge       = 0
  Multiplicity = 1
  Basis Set: AUG-CC-PVTZ
    Blend: AUG-CC-PVTZ
  Basis Set: (AUG-CC-PVTZ AUX)
    Blend: AUG-CC-PVTZ-JKFIT
  @DF-RHF Final Energy:  -157.34858868490747
    Total Energy =                       -157.3485886849074689
  Basis Set: (AUG-CC-PVTZ AUX)
    Blend: AUG-CC-PVTZ-RI
    Molecular point group: c1
  Basis Set: AUG-CC-PVTZ
    Blend: AUG-CC-PVTZ
  Basis Set: (AUG-CC-PVTZ AUX)
    Blend: AUG-CC-PVTZ-JKFIT
  Basis Set: (AUG-CC-PVTZ AUX)
    Blend: AUG-CC-PVTZ-JKFIT
	 Reference Energy          =    -157.3485886849074689 [Eh]
	 Singles Energy            =      -0.0000000000000000 [Eh]
	 Same-Spin Energy          =      -0.1654614882467451 [Eh]
	 Opposite-Spin Energy      =      -0.6393174589222382 [Eh]
	 Correlation Energy        =      -0.8047789471689833 [Eh]
	 Total Energy              =    -158.1533676320764528 [Eh]
	 SCS Total Energy          =    -158.1709234650297446 [Eh]
  @DF-RHF Final Energy:  -157.35144095885400
    Total Energy =                       -157.3514409588539991
  @DF-RHF Final Energy:  -157.35233901953825
    Total Energy =                       -157.3523390195382490
  @DF-RHF Final Energy:  -157.35266448293564
    Total Energy =                       -157.3526644829356371
  @DF-RHF Final Energy:  -157.35269572764827
    Total Energy =                       -157.3526957276482676
  @DF-RHF Final Energy:  -157.35269934838297
    Total Energy =                       -157.3526993483829699
  Charge       = 0
  Multiplicity = 1
  Basis Set: AUG-CC-PVTZ
    Blend: AUG-CC-PVTZ
  Basis Set: (AUG-CC-PVTZ AUX)
    Blend: AUG-CC-PVTZ-JKFIT

    Orbital Energies (a.u.)
    -----------------------

    Doubly Occupied:

       1A    -11.211619     2A    -11.210871     3A    -11.205920
       4A    -11.205638     5A     -1.073164     6A     -0.980783
       7A     -0.861697     8A     -0.788756     9A     -0.639648
      10A     -0.583600    11A     -0.577291    12A     -0.570045
      13A     -0.511206    14A     -0.497047    15A     -0.470310
      16A     -0.458908    17A     -0.455237

  @DF-RHF Final Energy:  -157.35270144224231

   => Energetics <=

    Nuclear Repulsion Energy =            131.3603712895582873
    One-Electron Energy =                -470.8226687929593481
    Two-Electron Energy =                 182.1095960611587259
    DFT Exchange-Correlation Energy =       0.0000000000000000
    Empirical Dispersion Energy =           0.0000000000000000
    PCM Polarization Energy =               0.0000000000000000
    EFP Energy =                            0.0000000000000000
    Total Energy =                       -157.3527014422423065
  Basis Set: (AUG-CC-PVTZ AUX)
    Blend: AUG-CC-PVTZ-RI
    Molecular point group: c1
  Basis Set: AUG-CC-PVTZ
    Blend: AUG-CC-PVTZ
  Basis Set: (AUG-CC-PVTZ AUX)
    Blend: AUG-CC-PVTZ-JKFIT
  Basis Set: (AUG-CC-PVTZ AUX)
    Blend: AUG-CC-PVTZ-JKFIT
	 Reference Energy          =    -157.3527014422423065 [Eh]
	 Singles Energy            =      -0.0000000000000000 [Eh]
	 Same-Spin Energy          =      -0.1654637053153754 [Eh]
	 Opposite-Spin Energy      =      -0.6397205728867985 [Eh]
	 Correlation Energy        =      -0.8051842782021739 [Eh]
	 Total Energy              =    -158.1578857204444830 [Eh]

	 ================> DF-SCS-MP2 Energies <==================
	-----------------------------------------------------------
	 SCS Same-Spin Scale       =       0.3333333333333333 [-]
	 SCS Opposite-Spin Scale   =       1.2000000000000000 [-]
	 SCS Same-Spin Energy      =      -0.0551545684384585 [Eh]
	 SCS Opposite-Spin Energy  =      -0.7676646874641582 [Eh]
	 SCS Correlation Energy    =      -0.8228192559026166 [Eh]
	 SCS Total Energy          =    -158.1755206981449362 [Eh]
	-----------------------------------------------------------

  -Total Gradient:
     Atom            X                  Y                   Z
    ------   -----------------  -----------------  -----------------
       1        0.000022963312     0.000010487890     0.000000247125
       2        0.000004436019    -0.000006679566    -0.000006366193
       3        0.000012950553     0.000007310410     0.000011818532
       4       -0.000078193881     0.000005450449    -0.000026930976
       5       -0.000006267183    -0.000010015730    -0.000008250866
       6       -0.000018704807    -0.000029997919     0.000000818285
       7        0.000666547804     0.000405564401    -0.002173152093
       8        0.000012826062     0.000005095737     0.000009986113
       9        0.000014643345     0.000033062484    -0.000002065426
      10       -0.000761654549     0.000069626550     0.002514752713
      11       -0.000013687787    -0.000000094188    -0.000016850653
      12       -0.000014482619    -0.000000062135    -0.000004431427
      13        0.000582516842     0.002384277996    -0.002011838195
      14       -0.000423893108    -0.002874026376     0.001712263064

  **** Optimization is complete! (in 7 steps) ****
    Final optimized geometry and variables:
    Molecular point group: c1

    Geometry (in Angstrom), charge = 0, multiplicity = 1:

    H           -2.349223660340     0.086064518755     0.335819952261
    H           -2.189793284546     1.712344545886    -0.318502645120
    H           -1.920838633404     0.314432797885    -1.353830065922
    C           -1.775207675547     0.707451084254    -0.349088544829
    H            0.252119536516     1.347983863619    -0.654147082708
    H           -0.172410258827     1.105392078144     1.024465516900
    C           -0.304472643609     0.696743400774     0.020976279609
    H           -0.274388776110    -1.366801787103     0.596546874321
    H            0.194192151801    -1.066434356142    -1.055703182564
    C            0.302517337008    -0.692844912591    -0.036816017493
    H            1.907360591958    -1.000285487267     1.406856125150
    H            2.211331629264     0.277557468457     0.246101235491
    H            2.359209353964    -1.385961964185    -0.255799971176
    C            1.775688311541    -0.713389719204     0.367296104079

*** Psi4 exiting successfully. Buy a developer a beer!
