                               Psi4 1.1 release

  ==> Input File <==

--------------------------------------------------------------------------

memory 5 Gb

molecule phepyrFOH_anion {
  symmetry C1
  -1 1
  C      1.885   -1.036   -0.112
  C      0.807   -0.463   0.561
  C      4.080   -2.202   -1.484
  C      5.075   -2.817   0.617
  C      1.800   -1.079   2.676
  C      5.171   -2.782   -2.110
  C      6.122   -3.370   -0.103
  C      2.921   -1.631   0.608
  C      4.038   -2.224   -0.095
  C      0.764   -0.484   1.955
  C      2.878   -1.652   2.002
  N      6.197   -3.368   -1.452
  O      -0.227   0.043   2.574
  F      3.866   -2.220   2.709
  H      1.904   -1.013   -1.200
  H      0.011   -0.007   -0.025
  H      3.290   -1.747   -2.074
  H      5.076   -2.854   1.702
  H      1.791   -1.109   3.764
  H      5.252   -2.790   -3.192
  H      6.954   -3.846   0.405
  units Angstrom
}

dih_string = "1 8 9 3 0.001"
set optking fixed_dihedral = $dih_string

optimize('MP2/aug-cc-PVTZ')
--------------------------------------------------------------------------

    Molecular point group: c1
  Charge       = -1
  Multiplicity = 1
  Basis Set: AUG-CC-PVTZ
    Blend: AUG-CC-PVTZ
  Basis Set: (AUG-CC-PVTZ AUX)
    Blend: AUG-CC-PVTZ-JKFIT
  @DF-RHF Final Energy:  -649.59686663626644
    Total Energy =                       -649.5968666362664408
  Basis Set: (AUG-CC-PVTZ AUX)
    Blend: AUG-CC-PVTZ-RI
    Molecular point group: c1
  Basis Set: AUG-CC-PVTZ
    Blend: AUG-CC-PVTZ
  Basis Set: (AUG-CC-PVTZ AUX)
    Blend: AUG-CC-PVTZ-JKFIT
  Basis Set: (AUG-CC-PVTZ AUX)
    Blend: AUG-CC-PVTZ-JKFIT
	 Reference Energy          =    -649.5968666362664408 [Eh]
	 Singles Energy            =      -0.0000000000000000 [Eh]
	 Same-Spin Energy          =      -0.6880454459184563 [Eh]
	 Opposite-Spin Energy      =      -2.0294621122564376 [Eh]
	 Correlation Energy        =      -2.7175075581748938 [Eh]
	 Total Energy              =    -652.3143741944413705 [Eh]
	 SCS Total Energy          =    -652.2615696529469460 [Eh]
  @DF-RHF Final Energy:  -649.60751384285163
    Total Energy =                       -649.6075138428516311
  @DF-RHF Final Energy:  -649.61491855096085
    Total Energy =                       -649.6149185509607378
  @DF-RHF Final Energy:  -649.61970381937931
    Total Energy =                       -649.6197038193793105
  @DF-RHF Final Energy:  -649.62243235847518
    Total Energy =                       -649.6224323584751801
  @DF-RHF Final Energy:  -649.62384978184480
    Total Energy =                       -649.6238497818446831
  @DF-RHF Final Energy:  -649.62464400328611
    Total Energy =                       -649.6246440032862211
  @DF-RHF Final Energy:  -649.62500826682890
    Total Energy =                       -649.6250082668288997
  @DF-RHF Final Energy:  -649.62509199336137
    Total Energy =                       -649.6250919933613659
  Charge       = -1
  Multiplicity = 1
  Basis Set: AUG-CC-PVTZ
    Blend: AUG-CC-PVTZ
  Basis Set: (AUG-CC-PVTZ AUX)
    Blend: AUG-CC-PVTZ-JKFIT

    Orbital Energies (a.u.)
    -----------------------

    Doubly Occupied:

       1A    -26.181582     2A    -20.335654     3A    -15.442501
       4A    -11.199136     5A    -11.160358     6A    -11.158679
       7A    -11.154355     8A    -11.150204     9A    -11.115193
      10A    -11.114619    11A    -11.109178    12A    -11.093582
      13A    -11.073474    14A    -11.070775    15A     -1.494695
      16A     -1.167615    17A     -1.141281    18A     -1.024775
      19A     -0.967534    20A     -0.916313    21A     -0.881206
      22A     -0.854766    23A     -0.745554    24A     -0.742060
      25A     -0.695557    26A     -0.680434    27A     -0.608686
      28A     -0.584034    29A     -0.566117    30A     -0.564877
      31A     -0.543257    32A     -0.522386    33A     -0.510357
      34A     -0.478599    35A     -0.474464    36A     -0.459176
      37A     -0.439782    38A     -0.434077    39A     -0.400288
      40A     -0.394731    41A     -0.393486    42A     -0.364164
      43A     -0.333059    44A     -0.307122    45A     -0.254383
      46A     -0.242749    47A     -0.236522    48A     -0.212388
      49A     -0.121732

  @DF-RHF Final Energy:  -649.62511522427644

   => Energetics <=

    Nuclear Repulsion Energy =            795.8135719291014993
    One-Electron Energy =               -2480.6423517258508582
    Two-Electron Energy =                1035.2036645724729169
    DFT Exchange-Correlation Energy =       0.0000000000000000
    Empirical Dispersion Energy =           0.0000000000000000
    PCM Polarization Energy =               0.0000000000000000
    EFP Energy =                            0.0000000000000000
    Total Energy =                       -649.6251152242764419
  Basis Set: (AUG-CC-PVTZ AUX)
    Blend: AUG-CC-PVTZ-RI
    Molecular point group: c1
  Basis Set: AUG-CC-PVTZ
    Blend: AUG-CC-PVTZ
  Basis Set: (AUG-CC-PVTZ AUX)
    Blend: AUG-CC-PVTZ-JKFIT
  Basis Set: (AUG-CC-PVTZ AUX)
    Blend: AUG-CC-PVTZ-JKFIT
	 Reference Energy          =    -649.6251152242764419 [Eh]
	 Singles Energy            =      -0.0000000000000001 [Eh]
	 Same-Spin Energy          =      -0.6846751099861581 [Eh]
	 Opposite-Spin Energy      =      -2.0261190993304070 [Eh]
	 Correlation Energy        =      -2.7107942093165649 [Eh]
	 Total Energy              =    -652.3359094335929740 [Eh]

	 ================> DF-SCS-MP2 Energies <==================
	-----------------------------------------------------------
	 SCS Same-Spin Scale       =       0.3333333333333333 [-]
	 SCS Opposite-Spin Scale   =       1.2000000000000000 [-]
	 SCS Same-Spin Energy      =      -0.2282250366620527 [Eh]
	 SCS Opposite-Spin Energy  =      -2.4313429191964882 [Eh]
	 SCS Correlation Energy    =      -2.6595679558585408 [Eh]
	 SCS Total Energy          =    -652.2846831801349481 [Eh]
	-----------------------------------------------------------

  -Total Gradient:
     Atom            X                  Y                   Z
    ------   -----------------  -----------------  -----------------
       1       -0.000011039498    -0.000007386359    -0.000004882241
       2        0.000026718358    -0.000018322223     0.000000731620
       3        0.000032601967    -0.000021224212    -0.000066191719
       4       -0.000066553745     0.000028814335    -0.000037632851
       5       -0.000014904375     0.000002192091     0.000052143418
       6       -0.000097108341     0.000056631810    -0.000014849070
       7        0.000014702716    -0.000013156401    -0.000051970583
       8        0.000019966715     0.000004414292    -0.000011933279
       9        0.000046896695    -0.000007663836     0.000113252904
      10        0.000049453915    -0.000015290300    -0.000029229340
      11       -0.000100143008     0.000053221070    -0.000117964729
      12        0.000057999626    -0.000031089766     0.000057202016
      13       -0.000014296942     0.000003218861    -0.000007428615
      14        0.000081142187    -0.000049760371     0.000062538492
      15       -0.000001622323     0.000002231008    -0.000007303813
      16       -0.000020957199     0.000012448955     0.000021585246
      17       -0.000009097041     0.000003955170     0.000001768896
      18        0.000000729320    -0.000000202111     0.000025328704
      19        0.000000151708     0.000000558943    -0.000000098557
      20        0.000007515100    -0.000006113776     0.000003104432
      21       -0.000002155844     0.000002522832     0.000011829077

  **** Optimization is complete! (in 10 steps) ****
    Final optimized geometry and variables:
    Molecular point group: c1

    Geometry (in Angstrom), charge = -1, multiplicity = 1:

    C           -1.332902951405     0.758003923143    -0.726129371077
    C           -2.415713700433     1.334916576632    -0.114864155501
    C            0.922360917529    -0.438894949840    -2.143940207307
    C            1.950091444083    -1.070549422778    -0.126011709824
    C           -1.486417469436     0.754045995705     2.011771247585
    C            1.989383974261    -1.005336928043    -2.812833014354
    C            2.974813916352    -1.610861167677    -0.882508034264
    C           -0.263472221110     0.146383245820    -0.033839967424
    C            0.849739939824    -0.444263319642    -0.738797509191
    C           -2.571469972589     1.374600131744     1.312570260664
    C           -0.426066781285     0.190868600629     1.359454905034
    N            3.032550746674    -1.599451937213    -2.218830185904
    O           -3.558615898762     1.899790772281     1.891145171435
    F            0.536805838638    -0.365745731813     2.163105126772
    H           -1.307974578953     0.779140860938    -1.804770914218
    H           -3.196861602890     1.784674212357    -0.712303700000
    H            0.142358536953     0.010073078828    -2.735830722053
    H            2.011446423563    -1.138975469243     0.943953308859
    H           -1.506004744273     0.729913078866     3.090563024353
    H            2.008009635020    -0.980643283025    -3.895636826671
    H            3.805820365164    -2.085246316947    -0.375295057729

*** Psi4 exiting successfully. Buy a developer a beer!
