                               Psi4 1.1 release

  ==> Input File <==

--------------------------------------------------------------------------

memory 5 Gb

molecule phepyrOH_cation {
  symmetry C1
  1 1
  C      1.885   -1.036   -0.112
  C      2.878   -1.652   2.002
  C      0.807   -0.463   0.561
  C      1.800   -1.079   2.676
  C      5.340   -1.983   0.343
  C      3.818   -3.040   -1.196
  C      6.393   -2.566   -0.346
  C      4.910   -3.596   -1.847
  C      2.921   -1.631   0.608
  C      4.040   -2.225   -0.090
  C      0.764   -0.484   1.955
  N      6.151   -3.346   -1.408
  O      -0.288   0.076   2.612
  H      1.904   -1.012   -1.199
  H      3.678   -2.112   2.578
  H      0.003   -0.001   -0.006
  H      1.772   -1.098   3.762
  H      5.542   -1.352   1.204
  H      2.814   -3.246   -1.557
  H      7.433   -2.434   -0.081
  H      4.833   -4.240   -2.712
  H      6.940   -3.764   -1.901
  H      -0.175   -0.018   3.571
  units Angstrom
}

dih_string = "1 9 10 5 135"
set optking fixed_dihedral = $dih_string

optimize('MP2/aug-cc-PVTZ')
--------------------------------------------------------------------------

    Molecular point group: c1
  Charge       = 1
  Multiplicity = 1
  Basis Set: AUG-CC-PVTZ
    Blend: AUG-CC-PVTZ
  Basis Set: (AUG-CC-PVTZ AUX)
    Blend: AUG-CC-PVTZ-JKFIT
  @DF-RHF Final Energy:  -551.67576781102002
    Total Energy =                       -551.6757678110200231
  Basis Set: (AUG-CC-PVTZ AUX)
    Blend: AUG-CC-PVTZ-RI
    Molecular point group: c1
  Basis Set: AUG-CC-PVTZ
    Blend: AUG-CC-PVTZ
  Basis Set: (AUG-CC-PVTZ AUX)
    Blend: AUG-CC-PVTZ-JKFIT
  Basis Set: (AUG-CC-PVTZ AUX)
    Blend: AUG-CC-PVTZ-JKFIT
	 Reference Energy          =    -551.6757678110200231 [Eh]
	 Singles Energy            =      -0.0000000000000002 [Eh]
	 Same-Spin Energy          =      -0.5963948281033681 [Eh]
	 Opposite-Spin Energy      =      -1.8251076649841991 [Eh]
	 Correlation Energy        =      -2.4215024930875670 [Eh]
	 Total Energy              =    -554.0972703041076102 [Eh]
	 SCS Total Energy          =    -554.0646952850355547 [Eh]
  @DF-RHF Final Energy:  -551.68046954547629
    Total Energy =                       -551.6804695454762850
  @DF-RHF Final Energy:  -551.68149729965205
    Total Energy =                       -551.6814972996520510
  @DF-RHF Final Energy:  -551.68156520746504
    Total Energy =                       -551.6815652074650416
  @DF-RHF Final Energy:  -551.68157126175140
    Total Energy =                       -551.6815712617514009
  @DF-RHF Final Energy:  -551.68159092276142
    Total Energy =                       -551.6815909227614156
  @DF-RHF Final Energy:  -551.68158780258511
    Total Energy =                       -551.6815878025851134
  Charge       = 1
  Multiplicity = 1
  Basis Set: AUG-CC-PVTZ
    Blend: AUG-CC-PVTZ
  Basis Set: (AUG-CC-PVTZ AUX)
    Blend: AUG-CC-PVTZ-JKFIT

    Orbital Energies (a.u.)
    -----------------------

    Doubly Occupied:

       1A    -20.705252     2A    -15.830822     3A    -11.481288
       4A    -11.481123     5A    -11.448803     6A    -11.431438
       7A    -11.411075     8A    -11.410565     9A    -11.377061
      10A    -11.374383    11A    -11.370432    12A    -11.353910
      13A    -11.347181    14A     -1.528222    15A     -1.508829
      16A     -1.318454    17A     -1.265834    18A     -1.239170
      19A     -1.156030    20A     -1.153744    21A     -1.063512
      22A     -1.057422    23A     -0.978365    24A     -0.962838
      25A     -0.951969    26A     -0.872016    27A     -0.861251
      28A     -0.855416    29A     -0.819626    30A     -0.801028
      31A     -0.786666    32A     -0.772175    33A     -0.755860
      34A     -0.730458    35A     -0.722158    36A     -0.709606
      37A     -0.704154    38A     -0.687558    39A     -0.659047
      40A     -0.631246    41A     -0.617673    42A     -0.570110
      43A     -0.539726    44A     -0.472145    45A     -0.435865

  @DF-RHF Final Energy:  -551.68159146372818

   => Energetics <=

    Nuclear Repulsion Energy =            713.7644596697448378
    One-Electron Energy =               -2150.4690879646682333
    Two-Electron Energy =                 885.0230368311952134
    DFT Exchange-Correlation Energy =       0.0000000000000000
    Empirical Dispersion Energy =           0.0000000000000000
    PCM Polarization Energy =               0.0000000000000000
    EFP Energy =                            0.0000000000000000
    Total Energy =                       -551.6815914637281821
  Basis Set: (AUG-CC-PVTZ AUX)
    Blend: AUG-CC-PVTZ-RI
    Molecular point group: c1
  Basis Set: AUG-CC-PVTZ
    Blend: AUG-CC-PVTZ
  Basis Set: (AUG-CC-PVTZ AUX)
    Blend: AUG-CC-PVTZ-JKFIT
  Basis Set: (AUG-CC-PVTZ AUX)
    Blend: AUG-CC-PVTZ-JKFIT
	 Reference Energy          =    -551.6815914637281821 [Eh]
	 Singles Energy            =      -0.0000000000000002 [Eh]
	 Same-Spin Energy          =      -0.5958300314338227 [Eh]
	 Opposite-Spin Energy      =      -1.8233941813437369 [Eh]
	 Correlation Energy        =      -2.4192242127775598 [Eh]
	 Total Energy              =    -554.1008156765057038 [Eh]

	 ================> DF-SCS-MP2 Energies <==================
	-----------------------------------------------------------
	 SCS Same-Spin Scale       =       0.3333333333333333 [-]
	 SCS Opposite-Spin Scale   =       1.2000000000000000 [-]
	 SCS Same-Spin Energy      =      -0.1986100104779409 [Eh]
	 SCS Opposite-Spin Energy  =      -2.1880730176124841 [Eh]
	 SCS Correlation Energy    =      -2.3866830280904248 [Eh]
	 SCS Total Energy          =    -554.0682744918185563 [Eh]
	-----------------------------------------------------------

  -Total Gradient:
     Atom            X                  Y                   Z
    ------   -----------------  -----------------  -----------------
       1        0.001862303390     0.003487567265     0.000127064662
       2        0.000017898905     0.000044690525     0.000013009456
       3        0.000000707239     0.000011505383     0.000007586759
       4       -0.000032187588    -0.000045563215     0.000010535364
       5        0.000205336946     0.003259765874    -0.002374091657
       6       -0.000019076199    -0.000011645222    -0.000001747762
       7       -0.000003175777    -0.000028009140     0.000008424324
       8        0.000011319771     0.000015827421    -0.000011146449
       9       -0.002709298527    -0.003555246473    -0.001396428679
      10        0.000650579032    -0.003188454215     0.003639090107
      11        0.000050263875     0.000068285979    -0.000013630829
      12        0.000000154906     0.000008639363    -0.000004934302
      13       -0.000018954458    -0.000016277713     0.000006683143
      14       -0.000001572616    -0.000013793162     0.000005883143
      15       -0.000014322919    -0.000013867371    -0.000006366601
      16       -0.000005749616    -0.000005333242     0.000000658434
      17       -0.000000243829    -0.000000279967    -0.000002254120
      18       -0.000002872521    -0.000011750454    -0.000011997138
      19        0.000008489484     0.000002816116     0.000007569940
      20        0.000000404606     0.000003256831    -0.000006569060
      21        0.000002274525    -0.000002545014     0.000006227496
      22       -0.000000663065     0.000000647500     0.000001439982
      23       -0.000001615552    -0.000010237064    -0.000005006212

  **** Optimization is complete! (in 8 steps) ****
    Final optimized geometry and variables:
    Molecular point group: c1

    Geometry (in Angstrom), charge = 1, multiplicity = 1:

    C           -1.310085341881     0.644043225073    -0.547748101161
    C           -0.280241056766     0.122204052435     1.566139663405
    C           -2.352514137228     1.261306935712     0.109453922179
    C           -1.336615926999     0.716109864808     2.228031681112
    C            2.176393277649    -0.293364221274    -0.101991911847
    C            0.684243586991    -1.276681625150    -1.690903186643
    C            3.236579670557    -0.817882498615    -0.798403505090
    C            1.765259660796    -1.783683473243    -2.367737207596
    C           -0.264344740146     0.057102625928     0.171542044939
    C            0.861699406437    -0.523103871681    -0.524413612119
    C           -2.376640663920     1.292298441491     1.501941492861
    N            3.003181915192    -1.544206306614    -1.904156151716
    O           -3.431705674289     1.897670193365     2.074813732259
    H           -1.291224286938     0.647414960723    -1.627827974516
    H            0.512703756526    -0.334876701805     2.140221975844
    H           -3.154743388584     1.734042028952    -0.434848372774
    H           -1.356171282661     0.733322126358     3.308039918935
    H            2.373330573593     0.314552177028     0.766117325992
    H           -0.306755329750    -1.490223472413    -2.057759914385
    H            4.266988752618    -0.667906604787    -0.522333058497
    H            1.686309428255    -2.381537127030    -3.260405862751
    H            3.792684389614    -1.922808451716    -2.411358126954
    H           -3.356644579245     1.870111262338     3.035123636227

*** Psi4 exiting successfully. Buy a developer a beer!
