                               Psi4 1.1 release

  ==> Input File <==

--------------------------------------------------------------------------

memory 5 Gb

molecule phepyrFOH_zwitterion {
  symmetry C1
  0 1
  C      1.885   -1.036   -0.112
  C      0.807   -0.463   0.561
  C      4.906   -3.081   0.574
  C      4.246   -1.938   -1.441
  C      1.800   -1.079   2.676
  C      5.969   -3.635   -0.125
  C      5.325   -2.521   -2.089
  C      2.921   -1.631   0.608
  C      4.038   -2.224   -0.095
  C      0.764   -0.484   1.955
  C      2.878   -1.652   2.002
  N      6.146   -3.343   -1.421
  O      -0.227   0.043   2.574
  F      3.866   -2.220   2.709
  H      1.904   -1.013   -1.200
  H      0.011   -0.007   -0.025
  H      4.768   -3.322   1.624
  H      3.584   -1.273   -1.988
  H      1.791   -1.109   3.764
  H      6.692   -4.310   0.312
  H      5.563   -2.357   -3.131
  H      6.934   -3.760   -1.916
  units Angstrom
}

dih_string = "1 8 9 3 195"
set optking fixed_dihedral = $dih_string

optimize('MP2/aug-cc-PVTZ')
--------------------------------------------------------------------------

    Molecular point group: c1
  Charge       = 0
  Multiplicity = 1
  Basis Set: AUG-CC-PVTZ
    Blend: AUG-CC-PVTZ
  Basis Set: (AUG-CC-PVTZ AUX)
    Blend: AUG-CC-PVTZ-JKFIT
  @DF-RHF Final Energy:  -650.10267582301299
    Total Energy =                       -650.1026758230129872
  Basis Set: (AUG-CC-PVTZ AUX)
    Blend: AUG-CC-PVTZ-RI
    Molecular point group: c1
  Basis Set: AUG-CC-PVTZ
    Blend: AUG-CC-PVTZ
  Basis Set: (AUG-CC-PVTZ AUX)
    Blend: AUG-CC-PVTZ-JKFIT
  Basis Set: (AUG-CC-PVTZ AUX)
    Blend: AUG-CC-PVTZ-JKFIT
	 Reference Energy          =    -650.1026758230129872 [Eh]
	 Singles Energy            =      -0.0000000000000004 [Eh]
	 Same-Spin Energy          =      -0.6799391340133834 [Eh]
	 Opposite-Spin Energy      =      -2.0291108177821191 [Eh]
	 Correlation Energy        =      -2.7090499517955027 [Eh]
	 Total Energy              =    -652.8117257748084512 [Eh]
	 SCS Total Energy          =    -652.7642551823560098 [Eh]
    Molecular point group: c1
  Charge       = 0
  Multiplicity = 1
  Basis Set: AUG-CC-PVTZ
    Blend: AUG-CC-PVTZ
  Basis Set: (AUG-CC-PVTZ AUX)
    Blend: AUG-CC-PVTZ-JKFIT

    Orbital Energies (a.u.)
    -----------------------

    Doubly Occupied:

       1A    -26.317826     2A    -20.452228     3A    -15.687488
       4A    -11.350340     5A    -11.345606     6A    -11.327298
       7A    -11.309411     8A    -11.279956     9A    -11.270142
      10A    -11.266372    11A    -11.241682    12A    -11.228728
      13A    -11.200071    14A    -11.197931    15A     -1.641456
      16A     -1.371788    17A     -1.278873    18A     -1.178762
      19A     -1.118051    20A     -1.104004    21A     -1.010969
      22A     -1.001441    23A     -0.932827    24A     -0.906677
      25A     -0.839005    26A     -0.831112    27A     -0.813828
      28A     -0.749259    29A     -0.725868    30A     -0.722560
      31A     -0.706098    32A     -0.686996    33A     -0.680162
      34A     -0.650813    35A     -0.644035    36A     -0.618305
      37A     -0.609761    38A     -0.597470    39A     -0.561603
      40A     -0.547211    41A     -0.525007    42A     -0.508995
      43A     -0.494396    44A     -0.475311    45A     -0.414906
      46A     -0.397432    47A     -0.361790    48A     -0.335828
      49A     -0.247535

  @DF-RHF Final Energy:  -650.11559378556410

   => Energetics <=

    Nuclear Repulsion Energy =            819.5932533695051916
    One-Electron Energy =               -2513.8872663696679410
    Two-Electron Energy =                1044.1784192145987618
    DFT Exchange-Correlation Energy =       0.0000000000000000
    Empirical Dispersion Energy =           0.0000000000000000
    PCM Polarization Energy =               0.0000000000000000
    EFP Energy =                            0.0000000000000000
    Total Energy =                       -650.1155937855639877
  Basis Set: (AUG-CC-PVTZ AUX)
    Blend: AUG-CC-PVTZ-RI
    Molecular point group: c1

    Geometry (in Angstrom), charge = 0, multiplicity = 1:

       Center              X                  Y                   Z               Mass
    ------------   -----------------  -----------------  -----------------  -----------------
           C         -1.370817488312     0.779703504950    -0.769869374308    12.000000000000
           C         -2.441381622793     1.349207883161    -0.104650388879    12.000000000000
           C          1.671773233501    -1.280301897751    -0.082894427869    12.000000000000
           C          1.009130864399    -0.131922796487    -2.103820175966    12.000000000000
           C         -1.442029551798     0.731228937375     2.021616168054    12.000000000000
           C          2.726826283079    -1.828091176085    -0.780109419537    12.000000000000
           C          2.079650118062    -0.707854969108    -2.749769901195    12.000000000000
           C         -0.323425808411     0.177974787443    -0.053660345511    12.000000000000
           C          0.788496582361    -0.413338589930    -0.746898511235    12.000000000000
           C         -2.494130971803     1.334475320498     1.304319789064    12.000000000000
           C         -0.379500502411     0.165051644800     1.346652800996    12.000000000000
           N          2.905661130739    -1.533678446069    -2.081837259353    14.003074004780
           O         -3.475601439828     1.857313961125     1.919509577636    15.994914619560
           F          0.613469667274    -0.402228867650     2.051756846210    18.998403224000
           H         -1.355816002926     0.802984247637    -1.853788537903     1.007825032070
           H         -3.236017405058     1.803479148791    -0.686792609682     1.007825032070
           H          1.545133593374    -1.530490317171     0.958116351075     1.007825032070
           H          0.354549056548     0.530283741249    -2.654485813061     1.007825032070
           H         -1.447330432817     0.701418654481     3.105859859155     1.007825032070
           H          3.447832281958    -2.502928238845    -0.343055854049     1.007825032070
           H          2.314132865075    -0.539770818481    -3.790499859627     1.007825032070
           H          3.689670961323    -1.947238650172    -2.575374165436     1.007825032070

  Basis Set: AUG-CC-PVTZ
    Blend: AUG-CC-PVTZ
  Basis Set: (AUG-CC-PVTZ AUX)
    Blend: AUG-CC-PVTZ-JKFIT
  Basis Set: (AUG-CC-PVTZ AUX)
    Blend: AUG-CC-PVTZ-JKFIT
	 Reference Energy          =    -650.1155937855641014 [Eh]
	 Singles Energy            =      -0.0000000000000002 [Eh]
	 Same-Spin Energy          =      -0.6779767559585914 [Eh]
	 Opposite-Spin Energy      =      -2.0274238210167126 [Eh]
	 Correlation Energy        =      -2.7054005769753040 [Eh]
	 Total Energy              =    -652.8209943625394089 [Eh]

	 ================> DF-SCS-MP2 Energies <==================
	-----------------------------------------------------------
	 SCS Same-Spin Scale       =       0.3333333333333333 [-]
	 SCS Opposite-Spin Scale   =       1.2000000000000000 [-]
	 SCS Same-Spin Energy      =      -0.2259922519861971 [Eh]
	 SCS Opposite-Spin Energy  =      -2.4329085852200549 [Eh]
	 SCS Correlation Energy    =      -2.6589008372062519 [Eh]
	 SCS Total Energy          =    -652.7744946227703622 [Eh]
	-----------------------------------------------------------

  -Total Gradient:
     Atom            X                  Y                   Z
    ------   -----------------  -----------------  -----------------
       1        0.025381403957    -0.018935720062    -0.009752180219
       2       -0.022904870693     0.011496413571     0.040507044691
       3       -0.031556204576     0.018482565216     0.012625570347
       4       -0.018271314568     0.011286492646     0.020493789532
       5       -0.042388620029     0.023201005533    -0.001312186381
       6        0.011787910630    -0.002880268313    -0.018174959283
       7        0.018451548166    -0.012927606720     0.001825987247
       8       -0.043299608571     0.023155905105     0.024593378171
       9        0.041365080350    -0.022445916812    -0.027816703792
      10        0.049224569369    -0.026561908986    -0.031225894984
      11        0.041785598122    -0.016537744359    -0.015143511563
      12       -0.015890754876     0.007883270059     0.009768310855
      13       -0.017654397529     0.009515025356     0.010661496173
      14        0.000261589453    -0.005049550082    -0.013116205045
      15        0.000567498689     0.001367175779    -0.004916433868
      16       -0.000571786565     0.001231298028    -0.007118862155
      17       -0.003141898534     0.002467110453     0.010214294714
      18       -0.005103467242     0.002421017106    -0.001459856232
      19        0.002993492190    -0.002376907659     0.004876612825
      20        0.002182674944    -0.000789534509    -0.000339081643
      21        0.001210109605    -0.000852367129    -0.001741739890
      22        0.005571447708    -0.003149754219    -0.003448869502

*** Psi4 exiting successfully. Buy a developer a beer!
