                               Psi4 1.1 release

  ==> Input File <==

--------------------------------------------------------------------------

memory 1000 mb

molecule butane {
  symmetry C1
  0 1
  H      1.723   0.865   -9.357
  H      2.101   2.564   -9.517
  H      2.883   1.393   -10.551
  C      2.498   1.571   -9.569
  H      4.407   2.122   -8.751
  H      3.247   1.595   -7.555
  C      3.631   1.416   -8.537
  H      3.665   -0.647   -7.940
  H      4.104   -0.384   -9.610
  C      4.203   -0.012   -8.612
  H      6.088   -0.983   -8.270
  H      5.791   0.381   -7.220
  H      6.230   0.644   -8.890
  C      5.691   0.009   -8.218
  units Angstrom
}

dih_string = "14 10 7 4 150"
set optking fixed_dihedral = $dih_string

optimize('MP2/aug-cc-pvtz')
--------------------------------------------------------------------------

    Molecular point group: c1
  Charge       = 0
  Multiplicity = 1
  Basis Set: AUG-CC-PVTZ
    Blend: AUG-CC-PVTZ
  Basis Set: (AUG-CC-PVTZ AUX)
    Blend: AUG-CC-PVTZ-JKFIT
  @DF-RHF Final Energy:  -157.34980137223499
    Total Energy =                       -157.3498013722349924
  Basis Set: (AUG-CC-PVTZ AUX)
    Blend: AUG-CC-PVTZ-RI
    Molecular point group: c1
  Basis Set: AUG-CC-PVTZ
    Blend: AUG-CC-PVTZ
  Basis Set: (AUG-CC-PVTZ AUX)
    Blend: AUG-CC-PVTZ-JKFIT
  Basis Set: (AUG-CC-PVTZ AUX)
    Blend: AUG-CC-PVTZ-JKFIT
	 Reference Energy          =    -157.3498013722349924 [Eh]
	 Singles Energy            =      -0.0000000000000001 [Eh]
	 Same-Spin Energy          =      -0.1654529600245925 [Eh]
	 Opposite-Spin Energy      =      -0.6392762141432519 [Eh]
	 Correlation Energy        =      -0.8047291741678445 [Eh]
	 Total Energy              =    -158.1545305464028388 [Eh]
	 SCS Total Energy          =    -158.1720838158817628 [Eh]
  @DF-RHF Final Energy:  -157.35248266496541
    Total Energy =                       -157.3524826649654074
  @DF-RHF Final Energy:  -157.35333339545969
    Total Energy =                       -157.3533333954596856
  @DF-RHF Final Energy:  -157.35365347410192
    Total Energy =                       -157.3536534741019182
  @DF-RHF Final Energy:  -157.35370697521174
    Total Energy =                       -157.3537069752117361
  @DF-RHF Final Energy:  -157.35371596767348
    Total Energy =                       -157.3537159676734802
  @DF-RHF Final Energy:  -157.35370204797465
    Total Energy =                       -157.3537020479746502
  Charge       = 0
  Multiplicity = 1
  Basis Set: AUG-CC-PVTZ
    Blend: AUG-CC-PVTZ
  Basis Set: (AUG-CC-PVTZ AUX)
    Blend: AUG-CC-PVTZ-JKFIT

    Orbital Energies (a.u.)
    -----------------------

    Doubly Occupied:

       1A    -11.211285     2A    -11.210668     3A    -11.206364
       4A    -11.206357     5A     -1.073102     6A     -0.982268
       7A     -0.860873     8A     -0.788202     9A     -0.638617
      10A     -0.584955    11A     -0.584550    12A     -0.562735
      13A     -0.513055    14A     -0.499832    15A     -0.466489
      16A     -0.459202    17A     -0.456186

  @DF-RHF Final Energy:  -157.35370540633099

   => Energetics <=

    Nuclear Repulsion Energy =            131.5370845571109442
    One-Electron Energy =                -471.1720960199060073
    Two-Electron Energy =                 182.2813060564641034
    DFT Exchange-Correlation Energy =       0.0000000000000000
    Empirical Dispersion Energy =           0.0000000000000000
    PCM Polarization Energy =               0.0000000000000000
    EFP Energy =                            0.0000000000000000
    Total Energy =                       -157.3537054063309881
  Basis Set: (AUG-CC-PVTZ AUX)
    Blend: AUG-CC-PVTZ-RI
    Molecular point group: c1
  Basis Set: AUG-CC-PVTZ
    Blend: AUG-CC-PVTZ
  Basis Set: (AUG-CC-PVTZ AUX)
    Blend: AUG-CC-PVTZ-JKFIT
  Basis Set: (AUG-CC-PVTZ AUX)
    Blend: AUG-CC-PVTZ-JKFIT
	 Reference Energy          =    -157.3537054063309881 [Eh]
	 Singles Energy            =      -0.0000000000000001 [Eh]
	 Same-Spin Energy          =      -0.1654396337578699 [Eh]
	 Opposite-Spin Energy      =      -0.6396690196616922 [Eh]
	 Correlation Energy        =      -0.8051086534195622 [Eh]
	 Total Energy              =    -158.1588140597505401 [Eh]

	 ================> DF-SCS-MP2 Energies <==================
	-----------------------------------------------------------
	 SCS Same-Spin Scale       =       0.3333333333333333 [-]
	 SCS Opposite-Spin Scale   =       1.2000000000000000 [-]
	 SCS Same-Spin Energy      =      -0.0551465445859566 [Eh]
	 SCS Opposite-Spin Energy  =      -0.7676028235940306 [Eh]
	 SCS Correlation Energy    =      -0.8227493681799873 [Eh]
	 SCS Total Energy          =    -158.1764547745109724 [Eh]
	-----------------------------------------------------------

  -Total Gradient:
     Atom            X                  Y                   Z
    ------   -----------------  -----------------  -----------------
       1       -0.000002869252     0.000006819464    -0.000007535319
       2        0.000001678770    -0.000006365139    -0.000004595823
       3       -0.000011125258    -0.000002984384     0.000000012552
       4        0.001839145628     0.000862250483    -0.001847124784
       5       -0.000015348479     0.000004365763     0.000019299010
       6        0.000018193423     0.000008697153     0.000002949807
       7       -0.002261062556    -0.001053965769     0.001543935781
       8       -0.000010021507    -0.000004342696    -0.000016776482
       9       -0.000005786659    -0.000014865600     0.000018961917
      10       -0.000247989591    -0.000190520126     0.002916819814
      11        0.000002338528     0.000008331849    -0.000000656348
      12        0.000010432265    -0.000004064571    -0.000004122529
      13        0.000005801464    -0.000000334020     0.000010815769
      14        0.000676613224     0.000386977589    -0.002631983364

  **** Optimization is complete! (in 8 steps) ****
    Final optimized geometry and variables:
    Molecular point group: c1

    Geometry (in Angstrom), charge = 0, multiplicity = 1:

    H           -2.307247877638     0.085696074775    -0.663573681168
    H           -1.972072206841     1.810278753267    -0.766743491029
    H           -1.146396507351     0.684135944407    -1.840434984772
    C           -1.522071002453     0.822006417483    -0.828580975908
    H            0.378325994492     1.387511496874    -0.037670943001
    H           -0.754509921271     0.869621294261     1.184030206761
    C           -0.398800025145     0.651926883737     0.177152868428
    H           -0.347431082015    -1.416185406339     0.775336945454
    H            0.136016374821    -1.132386510499    -0.876881074284
    C            0.221638683712    -0.739795098492     0.137860028679
    H            2.103297937812    -1.745193990638     0.533397996836
    H            1.815016063171    -0.329877223044     1.538845833136
    H            2.265095078724    -0.129251664093    -0.148716802414
    C            1.684946940239    -0.741222269461     0.538966109001

*** Psi4 exiting successfully. Buy a developer a beer!
