                               Psi4 1.1 release

  ==> Input File <==

--------------------------------------------------------------------------

memory 5 Gb

molecule phepyrOH_neutral {
  symmetry C1
  0 1
  C      1.885   -1.036   -0.112
  C      2.878   -1.652   2.002
  C      0.807   -0.463   0.561
  C      1.800   -1.079   2.676
  C      4.253   -1.944   -1.435
  C      4.907   -3.080   0.581
  C      5.339   -2.537   -2.058
  C      5.964   -3.622   -0.132
  C      2.921   -1.631   0.608
  C      4.040   -2.225   -0.090
  C      0.764   -0.484   1.955
  N      6.203   -3.372   -1.438
  O      -0.288   0.076   2.612
  H      1.904   -1.012   -1.199
  H      3.678   -2.112   2.578
  H      0.003   -0.001   -0.006
  H      1.772   -1.098   3.762
  H      3.598   -1.281   -1.992
  H      4.772   -3.323   1.631
  H      5.550   -2.348   -3.105
  H      6.668   -4.295   0.346
  H      -0.175   -0.018   3.571
  units Angstrom
}

dih_string = "1 9 10 5 15"
set optking fixed_dihedral = $dih_string

optimize('MP2/aug-cc-PVTZ')
--------------------------------------------------------------------------

    Molecular point group: c1
  Charge       = 0
  Multiplicity = 1
  Basis Set: AUG-CC-PVTZ
    Blend: AUG-CC-PVTZ
  Basis Set: (AUG-CC-PVTZ AUX)
    Blend: AUG-CC-PVTZ-JKFIT
  @DF-RHF Final Energy:  -551.28170532647243
    Total Energy =                       -551.2817053264724336
  Basis Set: (AUG-CC-PVTZ AUX)
    Blend: AUG-CC-PVTZ-RI
    Molecular point group: c1
  Basis Set: AUG-CC-PVTZ
    Blend: AUG-CC-PVTZ
  Basis Set: (AUG-CC-PVTZ AUX)
    Blend: AUG-CC-PVTZ-JKFIT
  Basis Set: (AUG-CC-PVTZ AUX)
    Blend: AUG-CC-PVTZ-JKFIT
	 Reference Energy          =    -551.2817053264724336 [Eh]
	 Singles Energy            =      -0.0000000000000002 [Eh]
	 Same-Spin Energy          =      -0.6056714968548290 [Eh]
	 Opposite-Spin Energy      =      -1.8321276976358996 [Eh]
	 Correlation Energy        =      -2.4377991944907285 [Eh]
	 Total Energy              =    -553.7195045209631417 [Eh]
	 SCS Total Energy          =    -553.6821490625870865 [Eh]
  @DF-RHF Final Energy:  -551.28896783824393
    Total Energy =                       -551.2889678382439342
  @DF-RHF Final Energy:  -551.29121622733885
    Total Energy =                       -551.2912162273388503
  @DF-RHF Final Energy:  -551.29129069352734
    Total Energy =                       -551.2912906935273440
  @DF-RHF Final Energy:  -551.29130230365342
    Total Energy =                       -551.2913023036534241
  Charge       = 0
  Multiplicity = 1
  Basis Set: AUG-CC-PVTZ
    Blend: AUG-CC-PVTZ
  Basis Set: (AUG-CC-PVTZ AUX)
    Blend: AUG-CC-PVTZ-JKFIT

    Orbital Energies (a.u.)
    -----------------------

    Doubly Occupied:

       1A    -20.603879     2A    -15.558421     3A    -11.315126
       4A    -11.270428     5A    -11.270352     6A    -11.267000
       7A    -11.254369     8A    -11.252067     9A    -11.248055
      10A    -11.244509    11A    -11.238025    12A    -11.234469
      13A    -11.234254    14A     -1.421179    15A     -1.256759
      16A     -1.176094    17A     -1.105487    18A     -1.040566
      19A     -1.029380    20A     -1.013982    21A     -0.883837
      22A     -0.874708    23A     -0.841248    24A     -0.814152
      25A     -0.752245    26A     -0.726846    27A     -0.686991
      28A     -0.665583    29A     -0.651886    30A     -0.635075
      31A     -0.612769    32A     -0.609321    33A     -0.605408
      34A     -0.589831    35A     -0.580365    36A     -0.548232
      37A     -0.536067    38A     -0.525776    39A     -0.502672
      40A     -0.494120    41A     -0.416339    42A     -0.401483
      43A     -0.358168    44A     -0.346475    45A     -0.306306

  @DF-RHF Final Energy:  -551.29130309699929

   => Energetics <=

    Nuclear Repulsion Energy =            697.4744849330375018
    One-Electron Energy =               -2131.5309688011775506
    Two-Electron Energy =                 882.7651807711407628
    DFT Exchange-Correlation Energy =       0.0000000000000000
    Empirical Dispersion Energy =           0.0000000000000000
    PCM Polarization Energy =               0.0000000000000000
    EFP Energy =                            0.0000000000000000
    Total Energy =                       -551.2913030969992860
  Basis Set: (AUG-CC-PVTZ AUX)
    Blend: AUG-CC-PVTZ-RI
    Molecular point group: c1
  Basis Set: AUG-CC-PVTZ
    Blend: AUG-CC-PVTZ
  Basis Set: (AUG-CC-PVTZ AUX)
    Blend: AUG-CC-PVTZ-JKFIT
  Basis Set: (AUG-CC-PVTZ AUX)
    Blend: AUG-CC-PVTZ-JKFIT
	 Reference Energy          =    -551.2913030969992860 [Eh]
	 Singles Energy            =      -0.0000000000000004 [Eh]
	 Same-Spin Energy          =      -0.6042796221109766 [Eh]
	 Opposite-Spin Energy      =      -1.8290037451422718 [Eh]
	 Correlation Energy        =      -2.4332833672532490 [Eh]
	 Total Energy              =    -553.7245864642525248 [Eh]

	 ================> DF-SCS-MP2 Energies <==================
	-----------------------------------------------------------
	 SCS Same-Spin Scale       =       0.3333333333333333 [-]
	 SCS Opposite-Spin Scale   =       1.2000000000000000 [-]
	 SCS Same-Spin Energy      =      -0.2014265407036589 [Eh]
	 SCS Opposite-Spin Energy  =      -2.1948044941707261 [Eh]
	 SCS Correlation Energy    =      -2.3962310348743854 [Eh]
	 SCS Total Energy          =    -553.6875341318736901 [Eh]
	-----------------------------------------------------------

  -Total Gradient:
     Atom            X                  Y                   Z
    ------   -----------------  -----------------  -----------------
       1        0.001145132632     0.001988669304     0.000116096947
       2        0.000008845997     0.000010561563     0.000011151543
       3       -0.000038353550     0.000001516464     0.000039141688
       4        0.000019549565    -0.000003286814    -0.000010808358
       5       -0.001318890986    -0.001808618819    -0.000580370115
       6       -0.000002819482     0.000008556599     0.000014406488
       7        0.000041995511     0.000049528173     0.000020067581
       8       -0.000017517966    -0.000043359276    -0.000023034043
       9       -0.002273340662    -0.003941611678    -0.000480621394
      10        0.002467395501     0.003736728397     0.000971116468
      11       -0.000032990414     0.000004334904    -0.000001219033
      12        0.000006823673    -0.000002855276     0.000003662097
      13        0.000016364815    -0.000000852220    -0.000005010326
      14       -0.000001918570     0.000011570517    -0.000014467173
      15       -0.000024490328     0.000016777411     0.000000636436
      16        0.000016915710    -0.000003273919    -0.000010278337
      17       -0.000002997809    -0.000000842712    -0.000004847982
      18       -0.000013652919    -0.000004320509    -0.000009189046
      19        0.000018528961    -0.000008735261    -0.000026932319
      20       -0.000025176193    -0.000019722347    -0.000006002731
      21        0.000003582402     0.000011693064     0.000009625800
      22        0.000007014120    -0.000002457561    -0.000013124187

  **** Optimization is complete! (in 6 steps) ****
    Final optimized geometry and variables:
    Molecular point group: c1

    Geometry (in Angstrom), charge = 0, multiplicity = 1:

    C           -1.288973401321     0.700969838526    -0.545913959568
    C           -0.280286428162     0.127974613910     1.537580889917
    C           -2.357191600521     1.274247819974     0.119043225247
    C           -1.345122524676     0.699950083168     2.213632342993
    C            1.167984559472    -0.203838078382    -1.906997079283
    C            1.785667020271    -1.369173013914     0.052434034101
    C            2.247579742395    -0.796053132409    -2.541475133359
    C            2.841114240028    -1.913004297417    -0.660839487015
    C           -0.230795048969     0.106389639118     0.144232235036
    C            0.911939449443    -0.475425147949    -0.564313745831
    C           -2.391690363032     1.274492676357     1.506061180758
    N            3.088836073420    -1.642975553784    -1.944341189352
    O           -3.467635321318     1.852311383731     2.106704701517
    H           -1.302379789600     0.694006198054    -1.624328523432
    H            0.533537776859    -0.281715680144     2.114797920337
    H           -3.175453474886     1.720118093905    -0.424626192812
    H           -1.355357185248     0.706969158360     3.294843357588
    H            0.554030506209     0.487485460129    -2.462069624819
    H            1.643228015359    -1.667873484232     1.078936770629
    H            2.446911574928    -0.577225854805    -3.581365152549
    H            3.516785854368    -2.605659783303    -0.178406370590
    H           -3.368709773510     1.782644996269     3.061068467971

*** Psi4 exiting successfully. Buy a developer a beer!
