                               Psi4 1.1 release

  ==> Input File <==

--------------------------------------------------------------------------

memory 5 Gb

molecule phepyrOH_neutral {
  symmetry C1
  0 1
  C      1.885   -1.036   -0.112
  C      2.878   -1.652   2.002
  C      0.807   -0.463   0.561
  C      1.800   -1.079   2.676
  C      3.862   -2.773   -1.356
  C      5.298   -2.250   0.501
  C      4.965   -3.329   -1.983
  C      6.337   -2.829   -0.209
  C      2.921   -1.631   0.608
  C      4.040   -2.225   -0.090
  C      0.764   -0.484   1.955
  N      6.202   -3.372   -1.440
  O      -0.288   0.076   2.612
  H      1.904   -1.012   -1.199
  H      3.678   -2.112   2.578
  H      0.003   -0.001   -0.006
  H      1.772   -1.098   3.762
  H      2.895   -2.772   -1.850
  H      5.475   -1.833   1.487
  H      4.879   -3.768   -2.972
  H      7.337   -2.875   0.208
  H      -0.109   1.011   2.800
  units Angstrom
}

dih_string = "3 11 13 22 270"
set optking fixed_dihedral = $dih_string

optimize('MP2/aug-cc-PVTZ')
--------------------------------------------------------------------------

    Molecular point group: c1
  Charge       = 0
  Multiplicity = 1
  Basis Set: AUG-CC-PVTZ
    Blend: AUG-CC-PVTZ
  Basis Set: (AUG-CC-PVTZ AUX)
    Blend: AUG-CC-PVTZ-JKFIT
  @DF-RHF Final Energy:  -551.28160188108052
    Total Energy =                       -551.2816018810805190
  Basis Set: (AUG-CC-PVTZ AUX)
    Blend: AUG-CC-PVTZ-RI
    Molecular point group: c1
  Basis Set: AUG-CC-PVTZ
    Blend: AUG-CC-PVTZ
  Basis Set: (AUG-CC-PVTZ AUX)
    Blend: AUG-CC-PVTZ-JKFIT
  Basis Set: (AUG-CC-PVTZ AUX)
    Blend: AUG-CC-PVTZ-JKFIT
	 Reference Energy          =    -551.2816018810805190 [Eh]
	 Singles Energy            =      -0.0000000000000002 [Eh]
	 Same-Spin Energy          =      -0.6046415736532389 [Eh]
	 Opposite-Spin Energy      =      -1.8302847113660028 [Eh]
	 Correlation Energy        =      -2.4349262850192419 [Eh]
	 Total Energy              =    -553.7165281660998062 [Eh]
	 SCS Total Energy          =    -553.6794907259375123 [Eh]
  @DF-RHF Final Energy:  -551.28738183548899
    Total Energy =                       -551.2873818354889863
  @DF-RHF Final Energy:  -551.28857632620418
    Total Energy =                       -551.2885763262041792
  @DF-RHF Final Energy:  -551.28858004614335
    Total Energy =                       -551.2885800461433519
  @DF-RHF Final Energy:  -551.28868016492424
    Total Energy =                       -551.2886801649242443
  @DF-RHF Final Energy:  -551.28875619651899
    Total Energy =                       -551.2887561965189889
  Charge       = 0
  Multiplicity = 1
  Basis Set: AUG-CC-PVTZ
    Blend: AUG-CC-PVTZ
  Basis Set: (AUG-CC-PVTZ AUX)
    Blend: AUG-CC-PVTZ-JKFIT

    Orbital Energies (a.u.)
    -----------------------

    Doubly Occupied:

       1A    -20.587462     2A    -15.561972     3A    -11.304377
       4A    -11.272838     5A    -11.272764     6A    -11.266427
       7A    -11.252386     8A    -11.250185     9A    -11.249823
      10A    -11.242329    11A    -11.242116    12A    -11.237363
      13A    -11.237249    14A     -1.401061    15A     -1.259311
      16A     -1.176093    17A     -1.106463    18A     -1.039476
      19A     -1.030702    20A     -1.012899    21A     -0.879621
      22A     -0.872211    23A     -0.840561    24A     -0.812341
      25A     -0.744945    26A     -0.723928    27A     -0.683496
      28A     -0.662936    29A     -0.649460    30A     -0.647043
      31A     -0.635167    32A     -0.606525    33A     -0.596800
      34A     -0.594227    35A     -0.550582    36A     -0.540493
      37A     -0.533389    38A     -0.517817    39A     -0.506779
      40A     -0.482111    41A     -0.418560    42A     -0.402326
      43A     -0.354675    44A     -0.349297    45A     -0.320904

  @DF-RHF Final Energy:  -551.28877638984181

   => Energetics <=

    Nuclear Repulsion Energy =            697.2966594197530412
    One-Electron Energy =               -2131.3118954514502548
    Two-Electron Energy =                 882.7264596418553992
    DFT Exchange-Correlation Energy =       0.0000000000000000
    Empirical Dispersion Energy =           0.0000000000000000
    PCM Polarization Energy =               0.0000000000000000
    EFP Energy =                            0.0000000000000000
    Total Energy =                       -551.2887763898418143
  Basis Set: (AUG-CC-PVTZ AUX)
    Blend: AUG-CC-PVTZ-RI
    Molecular point group: c1
  Basis Set: AUG-CC-PVTZ
    Blend: AUG-CC-PVTZ
  Basis Set: (AUG-CC-PVTZ AUX)
    Blend: AUG-CC-PVTZ-JKFIT
  Basis Set: (AUG-CC-PVTZ AUX)
    Blend: AUG-CC-PVTZ-JKFIT
	 Reference Energy          =    -551.2887763898418143 [Eh]
	 Singles Energy            =      -0.0000000000000006 [Eh]
	 Same-Spin Energy          =      -0.6035063530963967 [Eh]
	 Opposite-Spin Energy      =      -1.8279764196074659 [Eh]
	 Correlation Energy        =      -2.4314827727038630 [Eh]
	 Total Energy              =    -553.7202591625456307 [Eh]

	 ================> DF-SCS-MP2 Energies <==================
	-----------------------------------------------------------
	 SCS Same-Spin Scale       =       0.3333333333333333 [-]
	 SCS Opposite-Spin Scale   =       1.2000000000000000 [-]
	 SCS Same-Spin Energy      =      -0.2011687843654655 [Eh]
	 SCS Opposite-Spin Energy  =      -2.1935717035289590 [Eh]
	 SCS Correlation Energy    =      -2.3947404878944250 [Eh]
	 SCS Total Energy          =    -553.6835168777362242 [Eh]
	-----------------------------------------------------------

  -Total Gradient:
     Atom            X                  Y                   Z
    ------   -----------------  -----------------  -----------------
       1        0.000009570298     0.000024957825    -0.000003955882
       2        0.000005601984    -0.000000716018     0.000015190447
       3       -0.000061841628    -0.000112476079    -0.000003526932
       4        0.000009986219     0.000012182088    -0.000002470021
       5        0.000014537921     0.000004331910    -0.000000511939
       6        0.000001714092    -0.000017534793     0.000003465953
       7       -0.000016052360    -0.000001000795     0.000003628386
       8       -0.000006440494     0.000021251905     0.000004359425
       9        0.000008145583    -0.000022303560    -0.000019612705
      10       -0.000041298080     0.000025960311     0.000010157759
      11        0.000083993100     0.000125143181     0.000039424751
      12        0.000011302019    -0.000008911221    -0.000008070023
      13       -0.000086254298     0.000012663679    -0.000165999672
      14        0.000001480991    -0.000002785036     0.000003987248
      15        0.000002326285     0.000002164195    -0.000005345721
      16        0.000003693381    -0.000000009068    -0.000000435072
      17       -0.000004315130    -0.000005490503    -0.000000313556
      18        0.000001599363    -0.000008740458    -0.000004794777
      19        0.000007560532     0.000002322970     0.000000616497
      20       -0.000002526800    -0.000001573780    -0.000004307225
      21        0.000002214384    -0.000003994174     0.000005683591
      22        0.000055002641    -0.000045442583     0.000132829475

  **** Optimization is complete! (in 7 steps) ****
    Final optimized geometry and variables:
    Molecular point group: c1

    Geometry (in Angstrom), charge = 0, multiplicity = 1:

    C           -1.237468465793     0.772568437375    -0.561534598833
    C           -0.314343770749     0.055769599699     1.529489705652
    C           -2.307536321357     1.347821280038     0.104624017807
    C           -1.382876598543     0.628043097026     2.200731801126
    C            0.745954674727    -1.102228481557    -1.803457296707
    C            2.189678277114    -0.474047762170    -0.032458258990
    C            1.844691797547    -1.662571752269    -2.434882588149
    C            3.228743838343    -1.060937194859    -0.736483811580
    C           -0.224026259988     0.120685508811     0.139713355076
    C            0.904080620598    -0.485334066760    -0.565809634177
    C           -2.375857369155     1.283858097497     1.488453239072
    N            3.078124523480    -1.652074468600    -1.924024343204
    O           -3.468767216812     1.805779126740     2.152148149109
    H           -1.176025730152     0.851271908214    -1.636806707573
    H            0.442635146749    -0.474218599981     2.088305955088
    H           -3.093217749480     1.851696935603    -0.437048479171
    H           -1.465317401833     0.560952756251     3.274580293899
    H           -0.229187705454    -1.169627543200    -2.261709054127
    H            2.386412105620     0.009759683759     0.912386869612
    H            1.728546174634    -2.149145735733    -3.393286168285
    H            4.231089562348    -1.050503843729    -0.331512197215
    H           -3.294316574986     2.728068004784     2.358798404778

*** Psi4 exiting successfully. Buy a developer a beer!
