                              Psi4 1.0.0 Driver

  ==> Input File <==

--------------------------------------------------------------------------

memory 1000 mb

molecule butane {
  symmetry C1
  0 1
  H      1.604   0.760   -8.260
  H      1.745   2.388   -8.880
  H      2.043   1.024   -9.930
  C      2.142   1.395   -8.932
  H      4.169   2.051   -9.210
  H      3.731   1.788   -7.539
  C      3.631   1.416   -8.537
  H      3.403   -0.709   -8.750
  H      4.882   -0.082   -9.436
  C      4.203   -0.012   -8.612
  H      5.345   -1.329   -7.357
  H      4.270   -0.267   -6.480
  H      5.748   0.360   -7.166
  C      4.948   -0.337   -7.305
  units Angstrom
}

dih_string = "4 7 10 14 230"
set optking fixed_dihedral = $dih_string

optimize('B3LYP/cc-PVDZ')
--------------------------------------------------------------------------

    Molecular point group: c1
  Charge       = 0
  Multiplicity = 1
  Basis Set: CC-PVDZ
   => B3LYP Composite Functional <=
  Basis Set:
  @DF-RKS Final Energy:  -158.44395743843114
    Total Energy =                       -158.4439574384311413
    Molecular point group: c1
  Basis Set: CC-PVDZ
  Basis Set:
   => B3LYP Composite Functional <=
  Basis Set: CC-PVDZ
   => B3LYP Composite Functional <=
  Basis Set:
  @DF-RKS Final Energy:  -158.44988782335099
    Total Energy =                       -158.4498878233509913
  Basis Set: CC-PVDZ
  Basis Set:
   => B3LYP Composite Functional <=
  Basis Set: CC-PVDZ
   => B3LYP Composite Functional <=
  Basis Set:
  @DF-RKS Final Energy:  -158.45266948226916
    Total Energy =                       -158.4526694822691582
  Basis Set: CC-PVDZ
  Basis Set:
  @DF-RKS Final Energy:  -158.45354406845101
    Total Energy =                       -158.4535440684510093
  @DF-RKS Final Energy:  -158.45378050543258
    Total Energy =                       -158.4537805054325759
   => B3LYP Composite Functional <=
  Basis Set:
  @DF-RKS Final Energy:  -158.45379904905565
    Total Energy =                       -158.4537990490556467
  Basis Set: CC-PVDZ
  Basis Set:
   => B3LYP Composite Functional <=
  Basis Set: CC-PVDZ
   => B3LYP Composite Functional <=
  Basis Set:
  @DF-RKS Final Energy:  -158.45380184483830
    Total Energy =                       -158.4538018448382957
  Basis Set: CC-PVDZ
  Basis Set:
   => B3LYP Composite Functional <=
  Charge       = 0
  Multiplicity = 1
  Basis Set: CC-PVDZ
   => B3LYP Composite Functional <=
  Basis Set:

    Orbital Energies (a.u.)
    -----------------------

    Doubly Occupied:

       1A    -10.179990     2A    -10.179839     3A    -10.176262
       4A    -10.176260     5A     -0.788414     6A     -0.720157
       7A     -0.627577     8A     -0.571630     9A     -0.458599
      10A     -0.428612    11A     -0.419793    12A     -0.397202
      13A     -0.362732    14A     -0.358508    15A     -0.325768
      16A     -0.319922    17A     -0.315785

  @DF-RKS Final Energy:  -158.45380241211336

   => Energetics <=

    Nuclear Repulsion Energy =            129.9566498400838555
    One-Electron Energy =                -468.4098954777717836
    Two-Electron Energy =                 200.5810818878078123
    DFT Exchange-Correlation Energy =     -20.5816386622332530
    Empirical Dispersion Energy =           0.0000000000000000
    PCM Polarization Energy =               0.0000000000000000
    EFP Energy =                            0.0000000000000000
    Total Energy =                       -158.4538024121133617
    Molecular point group: c1
  Basis Set: CC-PVDZ
  Basis Set:
   => B3LYP Composite Functional <=

  -Total Gradient:
     Atom            X                  Y                   Z
    ------   -----------------  -----------------  -----------------
       1        0.000015155480     0.000008979135    -0.000013978278
       2        0.000010441816    -0.000022269216    -0.000001535214
       3        0.000006920359     0.000006998673     0.000017532817
       4       -0.000503265489    -0.000223722121     0.001696156686
       5       -0.000000572352    -0.000004090628     0.000013421344
       6       -0.000008813054     0.000001293631     0.000001578629
       7        0.000083088899     0.000027078155    -0.002111743015
       8        0.000001376346    -0.000004624810     0.000007585358
       9       -0.000013414245    -0.000002369506     0.000003981074
      10        0.001890492812     0.000891340192    -0.000314701818
      11       -0.000009213619     0.000023492732    -0.000000114634
      12        0.000011730088     0.000003511720    -0.000018518696
      13       -0.000014743225    -0.000010368570    -0.000006827809
      14       -0.001471177056    -0.000696179838     0.000729617621

  **** Optimization is complete! (in 8 steps) ****
    Final optimized geometry and variables:
    Molecular point group: c1

    Geometry (in Angstrom), charge = 0, multiplicity = 1:

    H           -2.213960495663     0.166776734426     0.051313337162
    H           -2.038591085990     1.810099545321    -0.613059776531
    H           -1.751236503402     0.393282300491    -1.650884469312
    C           -1.613879241506     0.792846706211    -0.631130978712
    H            0.429976262416     1.472187686607    -0.880365091892
    H           -0.053996415547     1.219435485188     0.791484274834
    C           -0.137540413449     0.789970432831    -0.223718867807
    H           -0.282822477163    -1.376262373505    -0.377220464317
    H            1.180733311923    -0.722213457537    -1.100696221430
    C            0.507891421361    -0.617528247556    -0.231786715911
    H            1.714909833504    -1.960810493930     1.011167905389
    H            0.602390936901    -0.917158593823     1.930811326415
    H            2.090015829929    -0.235536318883     1.234209709308
    C            1.270620317613    -0.952674324700     1.053314462972

*** Psi4 exiting successfully. Buy a developer a beer!
