                               Psi4 1.1 release

  ==> Input File <==

--------------------------------------------------------------------------

memory 5 Gb

molecule phepyrFOH_cation {
  symmetry C1
  1 1
  C      1.885   -1.036   -0.112
  C      0.807   -0.463   0.561
  C      4.830   -1.443   -0.930
  C      4.321   -3.578   0.063
  C      1.800   -1.079   2.676
  C      5.894   -2.040   -1.592
  C      5.398   -4.120   -0.624
  C      2.921   -1.631   0.608
  C      4.038   -2.225   -0.095
  C      0.764   -0.484   1.955
  C      2.878   -1.652   2.002
  N      6.144   -3.345   -1.422
  O      -0.289   0.076   2.612
  F      3.866   -2.220   2.709
  H      1.904   -1.012   -1.199
  H      0.002   -0.002   -0.006
  H      4.632   -0.385   -1.072
  H      3.719   -4.212   0.708
  H      1.772   -1.099   3.762
  H      6.561   -1.511   -2.259
  H      5.691   -5.159   -0.561
  H      6.930   -3.764   -1.918
  H      -0.355   1.020   2.398
  units Angstrom
}

dih_string = "2 10 13 23 300"
set optking fixed_dihedral = $dih_string

optimize('MP2/aug-cc-PVTZ')
--------------------------------------------------------------------------

    Molecular point group: c1
  Charge       = 1
  Multiplicity = 1
  Basis Set: AUG-CC-PVTZ
    Blend: AUG-CC-PVTZ
  Basis Set: (AUG-CC-PVTZ AUX)
    Blend: AUG-CC-PVTZ-JKFIT
  @DF-RHF Final Energy:  -650.55551527127761
    Total Energy =                       -650.5555152712777272
  Basis Set: (AUG-CC-PVTZ AUX)
    Blend: AUG-CC-PVTZ-RI
    Molecular point group: c1
  Basis Set: AUG-CC-PVTZ
    Blend: AUG-CC-PVTZ
  Basis Set: (AUG-CC-PVTZ AUX)
    Blend: AUG-CC-PVTZ-JKFIT
  Basis Set: (AUG-CC-PVTZ AUX)
    Blend: AUG-CC-PVTZ-JKFIT
	 Reference Energy          =    -650.5555152712776135 [Eh]
	 Singles Energy            =      -0.0000000000000003 [Eh]
	 Same-Spin Energy          =      -0.6687615767408362 [Eh]
	 Opposite-Spin Energy      =      -2.0133769163287605 [Eh]
	 Correlation Energy        =      -2.6821384930695973 [Eh]
	 Total Energy              =    -653.2376537643472147 [Eh]
	 SCS Total Energy          =    -653.1944880964524600 [Eh]
  @DF-RHF Final Energy:  -650.56053195209040
    Total Energy =                       -650.5605319520905141
  @DF-RHF Final Energy:  -650.56183291764546
    Total Energy =                       -650.5618329176454608
  @DF-RHF Final Energy:  -650.56226836479743
    Total Energy =                       -650.5622683647973190
  @DF-RHF Final Energy:  -650.56259704973650
    Total Energy =                       -650.5625970497364960
  @DF-RHF Final Energy:  -650.56296980410389
    Total Energy =                       -650.5629698041038864
  @DF-RHF Final Energy:  -650.56335720349443
    Total Energy =                       -650.5633572034944336
  @DF-RHF Final Energy:  -650.56371229424133
    Total Energy =                       -650.5637122942412134
  @DF-RHF Final Energy:  -650.56400935519287
    Total Energy =                       -650.5640093551928658
  @DF-RHF Final Energy:  -650.56423518526083
    Total Energy =                       -650.5642351852609409
  @DF-RHF Final Energy:  -650.56438178584222
    Total Energy =                       -650.5643817858422153
  @DF-RHF Final Energy:  -650.56444837948618
    Total Energy =                       -650.5644483794862936
  @DF-RHF Final Energy:  -650.56443244555226
    Total Energy =                       -650.5644324455522565
  @DF-RHF Final Energy:  -650.56444395834728
    Total Energy =                       -650.5644439583472831
  @DF-RHF Final Energy:  -650.56445165551474
    Total Energy =                       -650.5644516555148584
  Charge       = 1
  Multiplicity = 1
  Basis Set: AUG-CC-PVTZ
    Blend: AUG-CC-PVTZ
  Basis Set: (AUG-CC-PVTZ AUX)
    Blend: AUG-CC-PVTZ-JKFIT

    Orbital Energies (a.u.)
    -----------------------

    Doubly Occupied:

       1A    -26.444076     2A    -20.702433     3A    -15.832864
       4A    -11.482999     5A    -11.480852     6A    -11.470950
       7A    -11.455812     8A    -11.440768     9A    -11.414673
      10A    -11.411112    11A    -11.388822    12A    -11.385782
      13A    -11.358800    14A    -11.358007    15A     -1.764341
      16A     -1.524218    17A     -1.510725    18A     -1.325135
      19A     -1.276244    20A     -1.240500    21A     -1.170387
      22A     -1.159937    23A     -1.067109    24A     -1.064720
      25A     -0.988900    26A     -0.977209    27A     -0.962610
      28A     -0.895277    29A     -0.879818    30A     -0.866350
      31A     -0.837288    32A     -0.833064    33A     -0.819902
      34A     -0.809445    35A     -0.794157    36A     -0.775263
      37A     -0.762550    38A     -0.758821    39A     -0.739690
      40A     -0.721459    41A     -0.706607    42A     -0.675726
      43A     -0.662671    44A     -0.647351    45A     -0.617423
      46A     -0.578622    47A     -0.539999    48A     -0.477015
      49A     -0.455369

  @DF-RHF Final Energy:  -650.56445997312858

   => Energetics <=

    Nuclear Repulsion Energy =            830.8717023927234777
    One-Electron Energy =               -2521.8446159636259836
    Two-Electron Energy =                1040.4084535977740416
    DFT Exchange-Correlation Energy =       0.0000000000000000
    Empirical Dispersion Energy =           0.0000000000000000
    PCM Polarization Energy =               0.0000000000000000
    EFP Energy =                            0.0000000000000000
    Total Energy =                       -650.5644599731285780
  Basis Set: (AUG-CC-PVTZ AUX)
    Blend: AUG-CC-PVTZ-RI
    Molecular point group: c1
  Basis Set: AUG-CC-PVTZ
    Blend: AUG-CC-PVTZ
  Basis Set: (AUG-CC-PVTZ AUX)
    Blend: AUG-CC-PVTZ-JKFIT
  Basis Set: (AUG-CC-PVTZ AUX)
    Blend: AUG-CC-PVTZ-JKFIT
	 Reference Energy          =    -650.5644599731285780 [Eh]
	 Singles Energy            =      -0.0000000000000001 [Eh]
	 Same-Spin Energy          =      -0.6686854176044850 [Eh]
	 Opposite-Spin Energy      =      -2.0121885413916414 [Eh]
	 Correlation Energy        =      -2.6808739589961261 [Eh]
	 Total Energy              =    -653.2453339321247086 [Eh]

	 ================> DF-SCS-MP2 Energies <==================
	-----------------------------------------------------------
	 SCS Same-Spin Scale       =       0.3333333333333333 [-]
	 SCS Opposite-Spin Scale   =       1.2000000000000000 [-]
	 SCS Same-Spin Energy      =      -0.2228951392014950 [Eh]
	 SCS Opposite-Spin Energy  =      -2.4146262496699697 [Eh]
	 SCS Correlation Energy    =      -2.6375213888714648 [Eh]
	 SCS Total Energy          =    -653.2019813620000832 [Eh]
	-----------------------------------------------------------

  -Total Gradient:
     Atom            X                  Y                   Z
    ------   -----------------  -----------------  -----------------
       1        0.000006014745    -0.000003754803     0.000002825494
       2       -0.001634004118    -0.002827412565    -0.000695934870
       3       -0.000007576577     0.000001437828     0.000010127317
       4       -0.000024631809     0.000001197132     0.000026912497
       5        0.000010519877    -0.000005570196     0.000015387258
       6        0.000013439525    -0.000011577013    -0.000003227022
       7        0.000005451964    -0.000007107363    -0.000010494744
       8       -0.000016690317     0.000010144341    -0.000014173924
       9        0.000033955513    -0.000001097384    -0.000018201264
      10        0.003101476951     0.004451078298     0.002002938371
      11       -0.000012669879    -0.000001071949    -0.000000261533
      12       -0.000009875375     0.000012171748     0.000003551857
      13       -0.003817506761    -0.001945556575    -0.004996195431
      14        0.000007094554     0.000002074610    -0.000004166994
      15       -0.000001006387    -0.000000376136     0.000005539686
      16        0.000001758240     0.000000154861     0.000005280920
      17        0.000000231792    -0.000012062631     0.000000995410
      18        0.000010665853     0.000001200427    -0.000015318715
      19       -0.000006209884     0.000005498815    -0.000005787285
      20       -0.000002509183    -0.000002618477     0.000002492226
      21       -0.000000492180     0.000006233673    -0.000000720710
      22        0.000000314783     0.000001813427     0.000002251622
      23        0.002342248674     0.000325199929     0.003686179825

  **** Optimization is complete! (in 16 steps) ****
    Final optimized geometry and variables:
    Molecular point group: c1

    Geometry (in Angstrom), charge = 1, multiplicity = 1:

    C           -1.143393634153     1.052430907137    -0.720692368254
    C           -2.225007267921     1.621465677983    -0.083445728831
    C            1.479404978510     0.263695981943    -1.801321140437
    C            1.357576956376    -1.666537581901    -0.397214429406
    C           -1.563245768169     0.562220218220     1.975616032815
    C            2.524890136346    -0.312050538178    -2.478776169246
    C            2.404038151591    -2.214884688687    -1.096880330646
    C           -0.255848731671     0.206753393273    -0.043440454713
    C            0.860428341076    -0.401047162155    -0.735461918316
    C           -2.423985402090     1.397258408374     1.277486328494
    C           -0.510135052138    -0.016916149927     1.309275036585
    N            2.956552523745    -1.528497418863    -2.109735452327
    O           -3.517396245986     1.864690862083     1.930837330952
    F            0.333538474950    -0.790808268017     2.012822628867
    H           -1.018040536361     1.211984328933    -1.780977405114
    H           -2.927172187618     2.229042136433    -0.632052598269
    H            1.165073528136     1.253370223505    -2.089153840549
    H            0.917824830024    -2.239203995781     0.400151623189
    H           -1.713279886388     0.375638132932     3.026308855182
    H            3.040355521997     0.162667122225    -3.296791990249
    H            2.815928373917    -3.187207021656    -0.884249323433
    H            3.730737990335    -1.943170551361    -2.612782100056
    H           -3.564318424306     2.825019009248     1.873515117809

*** Psi4 exiting successfully. Buy a developer a beer!
