                              Psi4 1.0.0 Driver

  ==> Input File <==

--------------------------------------------------------------------------

memory 1000 mb

molecule butane {
  symmetry C1
  0 1
  H      1.604   0.760   -8.260
  H      1.745   2.388   -8.880
  H      2.043   1.024   -9.930
  C      2.142   1.395   -8.932
  H      4.169   2.051   -9.210
  H      3.731   1.788   -7.539
  C      3.631   1.416   -8.537
  H      3.482   -0.705   -8.233
  H      4.429   -0.253   -9.629
  C      4.203   -0.012   -8.612
  H      5.885   -1.088   -7.820
  H      5.263   0.145   -6.750
  H      6.210   0.597   -8.147
  C      5.488   -0.096   -7.768
  units Angstrom
}

dih_string = "4 7 10 14 200"
set optking fixed_dihedral = $dih_string

optimize('MP2/6-31G(d)')
--------------------------------------------------------------------------

    Molecular point group: c1
  Charge       = 0
  Multiplicity = 1
  Basis Set: 6-31G(D)
  Basis Set:
  @DF-RHF Final Energy:  -157.29254205960086
    Total Energy =                       -157.2925420596008905
  Basis Set:
    Molecular point group: c1
  Basis Set: 6-31G(D)
  Basis Set:
  Basis Set:
	 Reference Energy          =    -157.2925420596008621 [Eh]
	 Singles Energy            =      -0.0000000000000000 [Eh]
	 Same-Spin Energy          =      -0.1243666384584439 [Eh]
	 Opposite-Spin Energy      =      -0.4201899396420173 [Eh]
	 Correlation Energy        =      -0.5445565781004611 [Eh]
	 Total Energy              =    -157.8370986377013310 [Eh]
	 SCS Total Energy          =    -157.8382255333241062 [Eh]
  Basis Set: 6-31G(D)
  Basis Set:
  @DF-RHF Final Energy:  -157.29543622169294
    Total Energy =                       -157.2954362216929383
  Basis Set:
  Basis Set: 6-31G(D)
  Basis Set:
  @DF-RHF Final Energy:  -157.29623911670370
    Total Energy =                       -157.2962391167035321
  @DF-RHF Final Energy:  -157.29650533111445
    Total Energy =                       -157.2965053311144175
  @DF-RHF Final Energy:  -157.29656682966711
    Total Energy =                       -157.2965668296672561
  @DF-RHF Final Energy:  -157.29658234356285
    Total Energy =                       -157.2965823435629602
  @DF-RHF Final Energy:  -157.29656225811559
    Total Energy =                       -157.2965622581155287
	 Singles Energy            =      -0.0000000000000000 [Eh]
	 Same-Spin Energy          =      -0.1244162575237444 [Eh]
	 Opposite-Spin Energy      =      -0.4222498733421018 [Eh]
	 Correlation Energy        =      -0.5466661308658463 [Eh]
	 Total Energy              =    -157.8432283889814300 [Eh]
	 SCS Total Energy          =    -157.8447341919673477 [Eh]
  Charge       = 0
  Multiplicity = 1
  Basis Set: 6-31G(D)
  Basis Set:

    Orbital Energies (a.u.)
    -----------------------

    Doubly Occupied:

       1A    -11.215710     2A    -11.215116     3A    -11.210345
       4A    -11.210340     5A     -1.069931     6A     -0.979749
       7A     -0.859392     8A     -0.786392     9A     -0.636755
      10A     -0.583251    11A     -0.578690    12A     -0.563750
      13A     -0.513014    14A     -0.496436    15A     -0.467031
      16A     -0.459229    17A     -0.455711

  @DF-RHF Final Energy:  -157.29657208584882

   => Energetics <=

    Nuclear Repulsion Energy =            130.7967813871488829
    One-Electron Energy =                -469.5850273984024170
    Two-Electron Energy =                 181.4916739254048537
    DFT Exchange-Correlation Energy =       0.0000000000000000
    Empirical Dispersion Energy =           0.0000000000000000
    PCM Polarization Energy =               0.0000000000000000
    EFP Energy =                            0.0000000000000000
    Total Energy =                       -157.2965720858486804
  Basis Set:
    Molecular point group: c1
  Basis Set: 6-31G(D)
  Basis Set:
  Basis Set:
	 Reference Energy          =    -157.2965720858488226 [Eh]
	 Singles Energy            =      -0.0000000000000000 [Eh]
	 Same-Spin Energy          =      -0.1244124114298444 [Eh]
	 Opposite-Spin Energy      =      -0.4222442406496162 [Eh]
	 Correlation Energy        =      -0.5466566520794606 [Eh]
	 Total Energy              =    -157.8432287379282855 [Eh]

	 ================> DF-SCS-MP2 Energies <==================
	-----------------------------------------------------------
	 SCS Same-Spin Scale       =       0.3333333333333333 [-]
	 SCS Opposite-Spin Scale   =       1.2000000000000000 [-]
	 SCS Same-Spin Energy      =      -0.0414708038099481 [Eh]
	 SCS Opposite-Spin Energy  =      -0.5066930887795394 [Eh]
	 SCS Correlation Energy    =      -0.5481638925894876 [Eh]
	 SCS Total Energy          =    -157.8447359784383082 [Eh]
	-----------------------------------------------------------

  -Total Gradient:
     Atom            X                  Y                   Z
    ------   -----------------  -----------------  -----------------
       1       -0.000012884315    -0.000006449332     0.000001815709
       2       -0.000009861560     0.000008543813     0.000001054323
       3       -0.000006146798    -0.000002774371    -0.000010613535
       4       -0.000647999605    -0.000375301189     0.002557036156
       5        0.000006608475     0.000002454381     0.000001457085
       6        0.000005305337     0.000009355273    -0.000011988268
       7        0.000361800084     0.000251444810    -0.002702129997
       8        0.000006419426    -0.000003329437    -0.000014471126
       9       -0.000005242275    -0.000001867222    -0.000005561172
      10        0.001743452024     0.000818896037    -0.001944801233
      11        0.000007217029    -0.000010374067     0.000004322732
      12        0.000005958795     0.000002919345     0.000012335666
      13        0.000010684977     0.000005037345    -0.000000957732
      14       -0.001465311593    -0.000698555386     0.002112501391

  **** Optimization is complete! (in 8 steps) ****
    Final optimized geometry and variables:
    Molecular point group: c1

    Geometry (in Angstrom), charge = 0, multiplicity = 1:

    H           -2.318365203060     0.111245085482     0.198253529408
    H           -2.149951748696     1.739212583941    -0.473281282395
    H           -1.869767688963     0.325667744826    -1.497417584716
    C           -1.732734772836     0.728420285896    -0.489051457782
    H            0.311045828336     1.399895086663    -0.737180096139
    H           -0.169304053869     1.123223936938     0.926342950545
    C           -0.260734571716     0.723342233598    -0.091345839741
    H           -0.366608126900    -1.395714233037     0.256883157343
    H            0.553236957138    -0.960440952496    -1.171057218865
    C            0.361410933367    -0.672153009566    -0.130935156402
    H            2.077991763158    -1.775801388947     0.632159577633
    H            1.438072409906    -0.558843806390     1.745318305630
    H            2.392140494815    -0.060054229415     0.344073687746
    C            1.640583718034    -0.775275007954     0.692511739179

*** Psi4 exiting successfully. Buy a developer a beer!
