                               Psi4 1.1 release

  ==> Input File <==

--------------------------------------------------------------------------

memory 5 Gb

molecule phepyrFOH_neutral {
  symmetry C1
  0 1
  C      1.885   -1.036   -0.112
  C      0.807   -0.463   0.561
  C      3.825   -3.269   -0.988
  C      5.328   -1.753   0.119
  C      1.800   -1.079   2.676
  C      4.927   -3.802   -1.637
  C      6.363   -2.354   -0.579
  C      2.921   -1.631   0.608
  C      4.038   -2.225   -0.095
  C      0.764   -0.484   1.955
  C      2.878   -1.652   2.002
  N      6.195   -3.370   -1.455
  O      -0.289   0.076   2.612
  F      3.866   -2.220   2.709
  H      1.904   -1.012   -1.199
  H      0.002   -0.002   -0.006
  H      2.833   -3.663   -1.183
  H      5.532   -0.940   0.809
  H      1.772   -1.099   3.762
  H      4.814   -4.616   -2.345
  H      7.387   -2.023   -0.446
  H      -0.221   1.044   2.593
  units Angstrom
}

dih_string = "2 10 13 22 285"
set optking fixed_dihedral = $dih_string

optimize('MP2/aug-cc-PVTZ')
--------------------------------------------------------------------------

    Molecular point group: c1
  Charge       = 0
  Multiplicity = 1
  Basis Set: AUG-CC-PVTZ
    Blend: AUG-CC-PVTZ
  Basis Set: (AUG-CC-PVTZ AUX)
    Blend: AUG-CC-PVTZ-JKFIT
  @DF-RHF Final Energy:  -650.16989285177510
    Total Energy =                       -650.1698928517751028
  Basis Set: (AUG-CC-PVTZ AUX)
    Blend: AUG-CC-PVTZ-RI
    Molecular point group: c1
  Basis Set: AUG-CC-PVTZ
    Blend: AUG-CC-PVTZ
  Basis Set: (AUG-CC-PVTZ AUX)
    Blend: AUG-CC-PVTZ-JKFIT
  Basis Set: (AUG-CC-PVTZ AUX)
    Blend: AUG-CC-PVTZ-JKFIT
	 Reference Energy          =    -650.1698928517751028 [Eh]
	 Singles Energy            =      -0.0000000000000001 [Eh]
	 Same-Spin Energy          =      -0.6770712411331914 [Eh]
	 Opposite-Spin Energy      =      -2.0187640957650963 [Eh]
	 Correlation Energy        =      -2.6958353368982877 [Eh]
	 Total Energy              =    -652.8657281886734154 [Eh]
	 SCS Total Energy          =    -652.8181001804042580 [Eh]
  @DF-RHF Final Energy:  -650.17584930526289
    Total Energy =                       -650.1758493052630001
  @DF-RHF Final Energy:  -650.17732211557063
    Total Energy =                       -650.1773221155706324
  @DF-RHF Final Energy:  -650.17737792929165
    Total Energy =                       -650.1773779292916515
  @DF-RHF Final Energy:  -650.17732362727747
    Total Energy =                       -650.1773236272774739
    Molecular point group: c1
  Charge       = 0
  Multiplicity = 1
  Basis Set: AUG-CC-PVTZ
    Blend: AUG-CC-PVTZ
  Basis Set: (AUG-CC-PVTZ AUX)
    Blend: AUG-CC-PVTZ-JKFIT

    Orbital Energies (a.u.)
    -----------------------

    Doubly Occupied:

       1A    -26.320492     2A    -20.597186     3A    -15.564390
       4A    -11.344155     5A    -11.318914     6A    -11.273929
       7A    -11.273065     8A    -11.269863     9A    -11.263137
      10A    -11.260040    11A    -11.248951    12A    -11.247124
      13A    -11.240507    14A    -11.239193    15A     -1.638851
      16A     -1.411596    17A     -1.260680    18A     -1.186136
      19A     -1.113368    20A     -1.044075    21A     -1.035876
      22A     -1.023860    23A     -0.889882    24A     -0.877951
      25A     -0.854038    26A     -0.830018    27A     -0.771934
      28A     -0.734120    29A     -0.726558    30A     -0.706762
      31A     -0.697862    32A     -0.666903    33A     -0.664787
      34A     -0.652401    35A     -0.633187    36A     -0.625919
      37A     -0.605106    38A     -0.598283    39A     -0.562916
      40A     -0.545387    41A     -0.542251    42A     -0.526413
      43A     -0.509285    44A     -0.501048    45A     -0.419751
      46A     -0.400040    47A     -0.360188    48A     -0.349638
      49A     -0.333087

  @DF-RHF Final Energy:  -650.17735694004591

   => Energetics <=

    Nuclear Repulsion Energy =            813.2934432303354697
    One-Electron Energy =               -2501.4193901122448551
    Two-Electron Energy =                1037.9485899418634745
    DFT Exchange-Correlation Energy =       0.0000000000000000
    Empirical Dispersion Energy =           0.0000000000000000
    PCM Polarization Energy =               0.0000000000000000
    EFP Energy =                            0.0000000000000000
    Total Energy =                       -650.1773569400459110
  Basis Set: (AUG-CC-PVTZ AUX)
    Blend: AUG-CC-PVTZ-RI
    Molecular point group: c1

    Geometry (in Angstrom), charge = 0, multiplicity = 1:

       Center              X                  Y                   Z               Mass
    ------------   -----------------  -----------------  -----------------  -----------------
           C         -1.364049847211     0.657134215162    -0.759176276063    12.000000000000
           C         -2.447087986842     1.228828029213    -0.113119884627    12.000000000000
           C          0.633216402216    -1.426531174102    -1.742910174576    12.000000000000
           C          2.169898643339    -0.095523690713    -0.514314206549    12.000000000000
           C         -1.389888709493     0.803048069545     2.003049069235    12.000000000000
           C          1.715837693095    -1.962764693855    -2.422436570472    12.000000000000
           C          3.187176922845    -0.688409504733    -1.244887968759    12.000000000000
           C         -0.274066891661     0.145185001556    -0.055377330237    12.000000000000
           C          0.851830923950    -0.464979687612    -0.761588566890    12.000000000000
           C         -2.449700137817     1.315105825981     1.271705936105    12.000000000000
           C         -0.329072550430     0.234379469695     1.329440924871    12.000000000000
           N          2.981842697775    -1.610015537455    -2.189724273082    14.003074004780
           O         -3.537547950441     1.819794438790     1.950559520793    15.994914619560
           F          0.682943498184    -0.269177546011     2.061741414303    18.998403224000
           H         -1.348767785013     0.601705408324    -1.837875895766     1.007825032070
           H         -3.288938366023     1.608871452553    -0.670585394278     1.007825032070
           H         -0.369911995466    -1.758561284726    -1.966400626683     1.007825032070
           H          2.398199752244     0.646865927521     0.235150994590     1.007825032070
           H         -1.395221448805     0.840260666999     3.080034858694     1.007825032070
           H          1.559450899515    -2.713570180915    -3.184811723086     1.007825032070
           H          4.215771090882    -0.408050855172    -1.065811174691     1.007825032070
           H         -3.552792334717     2.776000787807     1.847601079948     1.007825032070

  Basis Set: AUG-CC-PVTZ
    Blend: AUG-CC-PVTZ
  Basis Set: (AUG-CC-PVTZ AUX)
    Blend: AUG-CC-PVTZ-JKFIT
  Basis Set: (AUG-CC-PVTZ AUX)
    Blend: AUG-CC-PVTZ-JKFIT
	 Reference Energy          =    -650.1773569400459110 [Eh]
	 Singles Energy            =      -0.0000000000000007 [Eh]
	 Same-Spin Energy          =      -0.6763318582045709 [Eh]
	 Opposite-Spin Energy      =      -2.0167941495029345 [Eh]
	 Correlation Energy        =      -2.6931260077075061 [Eh]
	 Total Energy              =    -652.8704829477534304 [Eh]

	 ================> DF-SCS-MP2 Energies <==================
	-----------------------------------------------------------
	 SCS Same-Spin Scale       =       0.3333333333333333 [-]
	 SCS Opposite-Spin Scale   =       1.2000000000000000 [-]
	 SCS Same-Spin Energy      =      -0.2254439527348570 [Eh]
	 SCS Opposite-Spin Energy  =      -2.4201529794035213 [Eh]
	 SCS Correlation Energy    =      -2.6455969321383792 [Eh]
	 SCS Total Energy          =    -652.8229538721842573 [Eh]
	-----------------------------------------------------------

  -Total Gradient:
     Atom            X                  Y                   Z
    ------   -----------------  -----------------  -----------------
       1        0.000073138639     0.001025513100     0.000035124616
       2       -0.000500223091    -0.001239895367    -0.000170604727
       3       -0.000107808068    -0.000949031309     0.000438329572
       4        0.000604354309     0.000656862596    -0.001382475687
       5        0.000189632553    -0.000038923937     0.000453271824
       6        0.000156288059     0.000015731154    -0.000016039548
       7        0.000081268180     0.000112086463     0.000176218889
       8        0.000575516254    -0.000343196989    -0.000190622036
       9       -0.000327058605     0.000418123606     0.000256542060
      10        0.001308301997     0.001775350084    -0.000221500641
      11       -0.001053602244    -0.000516766707    -0.000358584676
      12       -0.000061071454    -0.000208758862    -0.000202399517
      13       -0.001832932037    -0.001262212387    -0.001434378768
      14        0.000264427819    -0.000336850655     0.001263602838
      15        0.000056353188    -0.000186970102    -0.000259926766
      16       -0.000173930243     0.000073473766    -0.000052027667
      17       -0.000229313591     0.000089160627    -0.000113067307
      18        0.000018881438     0.000271910090     0.000269734356
      19        0.000000364524    -0.000006386353     0.000154363839
      20       -0.000168614650    -0.000182373848    -0.000149445058
      21        0.000102713328     0.000126292009     0.000117123723
      22        0.001023313673     0.000706863030     0.001386760685

*** Psi4 exiting successfully. Buy a developer a beer!
