                              Psi4 1.0.0 Driver

  ==> Input File <==

--------------------------------------------------------------------------

memory 1000 mb

molecule butane {
  symmetry C1
  0 1
  H      1.604   0.760   -8.260
  H      1.745   2.388   -8.880
  H      2.043   1.024   -9.930
  C      2.142   1.395   -8.932
  H      4.169   2.051   -9.210
  H      3.731   1.788   -7.539
  C      3.631   1.416   -8.537
  H      5.237   0.003   -8.337
  H      3.665   -0.647   -7.940
  C      4.203   -0.012   -8.612
  H      4.459   -1.539   -10.100
  H      4.599   0.087   -10.721
  H      3.027   -0.564   -10.324
  C      4.061   -0.548   -10.048
  units Angstrom
}

dih_string = "4 7 10 14 60"
set optking fixed_dihedral = $dih_string

optimize('MP2/6-31G(d)')
--------------------------------------------------------------------------

    Molecular point group: c1
  Charge       = 0
  Multiplicity = 1
  Basis Set: 6-31G(D)
  Basis Set:
  @DF-RHF Final Energy:  -157.28972872190624
    Total Energy =                       -157.2897287219060161
  Basis Set:
    Molecular point group: c1
  Basis Set: 6-31G(D)
  Basis Set:
  Basis Set:
	 Reference Energy          =    -157.2897287219062434 [Eh]
	 Singles Energy            =      -0.0000000000000000 [Eh]
	 Same-Spin Energy          =      -0.1250582698165308 [Eh]
	 Opposite-Spin Energy      =      -0.4208578684060331 [Eh]
	 Correlation Energy        =      -0.5459161382225639 [Eh]
	 Total Energy              =    -157.8356448601288093 [Eh]
	 SCS Total Energy          =    -157.8364442539323136 [Eh]
  Basis Set: 6-31G(D)
  Basis Set:
  @DF-RHF Final Energy:  -157.29423475306038
    Total Energy =                       -157.2942347530602376
  Basis Set:
  Basis Set: 6-31G(D)
  Basis Set:
  @DF-RHF Final Energy:  -157.29541113873418
    Total Energy =                       -157.2954111387342095
  @DF-RHF Final Energy:  -157.29610128840244
    Total Energy =                       -157.2961012884024967
  @DF-RHF Final Energy:  -157.29619057563585
    Total Energy =                       -157.2961905756357055
  @DF-RHF Final Energy:  -157.29622090866121
    Total Energy =                       -157.2962209086612120
  @DF-RHF Final Energy:  -157.29621671668752
    Total Energy =                       -157.2962167166874679
	 Singles Energy            =      -0.0000000000000000 [Eh]
	 Same-Spin Energy          =      -0.1246795688852003 [Eh]
	 Opposite-Spin Energy      =      -0.4225054323002218 [Eh]
	 Correlation Energy        =      -0.5471850011854220 [Eh]
	 Total Energy              =    -157.8434017178729505 [Eh]
	 SCS Total Energy          =    -157.8447830917428689 [Eh]
  Charge       = 0
  Multiplicity = 1
  Basis Set: 6-31G(D)
  Basis Set:

    Orbital Energies (a.u.)
    -----------------------

    Doubly Occupied:

       1A    -11.216017     2A    -11.215421     3A    -11.209730
       4A    -11.209727     5A     -1.070497     6A     -0.974684
       7A     -0.872843     8A     -0.773611     9A     -0.624482
      10A     -0.618920    11A     -0.572081    12A     -0.532880
      13A     -0.531175    14A     -0.502717    15A     -0.459900
      16A     -0.458478    17A     -0.456281

  @DF-RHF Final Energy:  -157.29621402483178

   => Energetics <=

    Nuclear Repulsion Energy =            132.7926067288276499
    One-Electron Energy =                -473.5787554538831046
    Two-Electron Energy =                 183.4899347002235857
    DFT Exchange-Correlation Energy =       0.0000000000000000
    Empirical Dispersion Energy =           0.0000000000000000
    PCM Polarization Energy =               0.0000000000000000
    EFP Energy =                            0.0000000000000000
    Total Energy =                       -157.2962140248318690
  Basis Set:
    Molecular point group: c1
  Basis Set: 6-31G(D)
  Basis Set:
  Basis Set:
	 Reference Energy          =    -157.2962140248317837 [Eh]
	 Singles Energy            =      -0.0000000000000000 [Eh]
	 Same-Spin Energy          =      -0.1246805317234554 [Eh]
	 Opposite-Spin Energy      =      -0.4225059893203088 [Eh]
	 Correlation Energy        =      -0.5471865210437642 [Eh]
	 Total Energy              =    -157.8434005458755394 [Eh]

	 ================> DF-SCS-MP2 Energies <==================
	-----------------------------------------------------------
	 SCS Same-Spin Scale       =       0.3333333333333333 [-]
	 SCS Opposite-Spin Scale   =       1.2000000000000000 [-]
	 SCS Same-Spin Energy      =      -0.0415601772411518 [Eh]
	 SCS Opposite-Spin Energy  =      -0.5070071871843705 [Eh]
	 SCS Correlation Energy    =      -0.5485673644255223 [Eh]
	 SCS Total Energy          =    -157.8447813892572924 [Eh]
	-----------------------------------------------------------

  -Total Gradient:
     Atom            X                  Y                   Z
    ------   -----------------  -----------------  -----------------
       1        0.000001352140    -0.000001937943     0.000004511498
       2       -0.000002411652     0.000008426063    -0.000001884784
       3       -0.000012232174    -0.000004541648    -0.000010219109
       4        0.000139394307     0.000104878368    -0.000585218412
       5       -0.000018863327     0.000002879745    -0.000006905393
       6        0.000031836669    -0.000000041022     0.000011132421
       7       -0.000407722837    -0.000256026653     0.000872409037
       8        0.000005490583     0.000012808095     0.000030730412
       9       -0.000002727617    -0.000010248892    -0.000017245332
      10        0.000814962955     0.000395281071    -0.000415082617
      11        0.000001197848    -0.000009444555     0.000000159866
      12        0.000003226617     0.000003582615     0.000000869100
      13       -0.000008711052    -0.000002551196    -0.000013676214
      14       -0.000544792460    -0.000243064049     0.000130419526

  **** Optimization is complete! (in 8 steps) ****
    Final optimized geometry and variables:
    Molecular point group: c1

    Geometry (in Angstrom), charge = 0, multiplicity = 1:

    H           -1.957660050487     0.220563567442     0.754895605679
    H           -1.766656188489     1.920668085703     0.309287946413
    H           -1.545459626482     0.662809454826    -0.906433627839
    C           -1.372655172123     0.914256915178     0.142534726755
    H            0.674987755327     1.515798032457    -0.148347284343
    H            0.248131704441     1.211658996054     1.526380532293
    C            0.107517755948     0.840585049548     0.504475594632
    H            1.750332339451    -0.528680519902     0.718580164845
    H            0.187980855380    -1.220876521575     1.117757468712
    C            0.700899082204    -0.564307189761     0.403653620741
    H            1.125272443872    -2.139863015993    -1.029784155881
    H            1.088041386536    -0.517755694403    -1.731773431292
    H           -0.419634530427    -1.334383431581    -1.301041384682
    C            0.615861140278    -1.172892709848    -0.992673843803

*** Psi4 exiting successfully. Buy a developer a beer!
