                               Psi4 1.1 release

  ==> Input File <==

--------------------------------------------------------------------------

memory 5 Gb

molecule phepyrFOH_anion {
  symmetry C1
  -1 1
  C      1.885   -1.036   -0.112
  C      0.807   -0.463   0.561
  C      5.208   -2.536   0.589
  C      3.945   -2.486   -1.457
  C      1.800   -1.079   2.676
  C      6.247   -3.104   -0.129
  C      5.042   -3.056   -2.084
  C      2.921   -1.631   0.608
  C      4.038   -2.224   -0.095
  C      0.764   -0.484   1.955
  C      2.878   -1.652   2.002
  N      6.194   -3.373   -1.453
  O      -0.227   0.043   2.574
  F      3.866   -2.220   2.709
  H      1.904   -1.013   -1.200
  H      0.011   -0.007   -0.025
  H      5.317   -2.347   1.652
  H      3.049   -2.256   -2.024
  H      1.791   -1.109   3.764
  H      7.180   -3.367   0.358
  H      5.020   -3.279   -3.146
  units Angstrom
}

dih_string = "1 8 9 3 165"
set optking { fixed_dihedral = $dih_string
              dynamic_level = 1
              geom_maxiter = 250
              print_trajectory_xyz_file = True }

optimize('MP2/aug-cc-PVTZ')
--------------------------------------------------------------------------

    Molecular point group: c1
  Charge       = -1
  Multiplicity = 1
  Basis Set: AUG-CC-PVTZ
    Blend: AUG-CC-PVTZ
  Basis Set: (AUG-CC-PVTZ AUX)
    Blend: AUG-CC-PVTZ-JKFIT
  @DF-RHF Final Energy:  -649.60185497904206
    Total Energy =                       -649.6018549790419456
  Basis Set: (AUG-CC-PVTZ AUX)
    Blend: AUG-CC-PVTZ-RI
    Molecular point group: c1
  Basis Set: AUG-CC-PVTZ
    Blend: AUG-CC-PVTZ
  Basis Set: (AUG-CC-PVTZ AUX)
    Blend: AUG-CC-PVTZ-JKFIT
  Basis Set: (AUG-CC-PVTZ AUX)
    Blend: AUG-CC-PVTZ-JKFIT
	 Reference Energy          =    -649.6018549790420593 [Eh]
	 Singles Energy            =      -0.0000000000000004 [Eh]
	 Same-Spin Energy          =      -0.6876272948611292 [Eh]
	 Opposite-Spin Energy      =      -2.0283292856220383 [Eh]
	 Correlation Energy        =      -2.7159565804831680 [Eh]
	 Total Energy              =    -652.3178115595252393 [Eh]
	 SCS Total Energy          =    -652.2650592200755000 [Eh]
  @DF-RHF Final Energy:  -649.61143749888652
    Total Energy =                       -649.6114374988865166
  @DF-RHF Final Energy:  -649.61143750523104
    Total Energy =                       -649.6114375052311516
  @DF-RHF Final Energy:  -649.62188084618049
    Total Energy =                       -649.6218808461806020
  @DF-RHF Final Energy:  -649.62519613155166
    Total Energy =                       -649.6251961315515473
  @DF-RHF Final Energy:  -649.62578529250311
    Total Energy =                       -649.6257852925032239
  @DF-RHF Final Energy:  -649.62586168572716
    Total Energy =                       -649.6258616857271591
  @DF-RHF Final Energy:  -649.62588915739195
    Total Energy =                       -649.6258891573918390
  @DF-RHF Final Energy:  -649.62589125447653
    Total Energy =                       -649.6258912544765280
  Charge       = -1
  Multiplicity = 1
  Basis Set: AUG-CC-PVTZ
    Blend: AUG-CC-PVTZ
  Basis Set: (AUG-CC-PVTZ AUX)
    Blend: AUG-CC-PVTZ-JKFIT

    Orbital Energies (a.u.)
    -----------------------

    Doubly Occupied:

       1A    -26.180583     2A    -20.334025     3A    -15.443821
       4A    -11.197642     5A    -11.161108     6A    -11.159466
       7A    -11.153253     8A    -11.149159     9A    -11.115923
      10A    -11.113988    11A    -11.110958    12A    -11.091695
      13A    -11.072484    14A    -11.070153    15A     -1.493522
      16A     -1.166085    17A     -1.142034    18A     -1.024802
      19A     -0.967396    20A     -0.917233    21A     -0.880336
      22A     -0.854045    23A     -0.745653    24A     -0.741889
      25A     -0.695570    26A     -0.679044    27A     -0.608554
      28A     -0.582280    29A     -0.567350    30A     -0.562533
      31A     -0.543168    32A     -0.523586    33A     -0.509869
      34A     -0.479220    35A     -0.475519    36A     -0.458991
      37A     -0.438620    38A     -0.433733    39A     -0.400822
      40A     -0.394112    41A     -0.391751    42A     -0.365466
      43A     -0.330681    44A     -0.307780    45A     -0.254460
      46A     -0.241712    47A     -0.236816    48A     -0.211737
      49A     -0.121223

  @DF-RHF Final Energy:  -649.62589098178648

   => Energetics <=

    Nuclear Repulsion Energy =            796.3666822370810223
    One-Electron Energy =               -2481.7814517476504079
    Two-Electron Energy =                1035.7888785287827886
    DFT Exchange-Correlation Energy =       0.0000000000000000
    Empirical Dispersion Energy =           0.0000000000000000
    PCM Polarization Energy =               0.0000000000000000
    EFP Energy =                            0.0000000000000000
    Total Energy =                       -649.6258909817865970
  Basis Set: (AUG-CC-PVTZ AUX)
    Blend: AUG-CC-PVTZ-RI
    Molecular point group: c1
  Basis Set: AUG-CC-PVTZ
    Blend: AUG-CC-PVTZ
  Basis Set: (AUG-CC-PVTZ AUX)
    Blend: AUG-CC-PVTZ-JKFIT
  Basis Set: (AUG-CC-PVTZ AUX)
    Blend: AUG-CC-PVTZ-JKFIT
	 Reference Energy          =    -649.6258909817864833 [Eh]
	 Singles Energy            =      -0.0000000000000001 [Eh]
	 Same-Spin Energy          =      -0.6847155049574010 [Eh]
	 Opposite-Spin Energy      =      -2.0253995958406721 [Eh]
	 Correlation Energy        =      -2.7101151007980731 [Eh]
	 Total Energy              =    -652.3360060825845039 [Eh]

	 ================> DF-SCS-MP2 Energies <==================
	-----------------------------------------------------------
	 SCS Same-Spin Scale       =       0.3333333333333333 [-]
	 SCS Opposite-Spin Scale   =       1.2000000000000000 [-]
	 SCS Same-Spin Energy      =      -0.2282385016524670 [Eh]
	 SCS Opposite-Spin Energy  =      -2.4304795150088063 [Eh]
	 SCS Correlation Energy    =      -2.6587180166612732 [Eh]
	 SCS Total Energy          =    -652.2846089984477658 [Eh]
	-----------------------------------------------------------

  -Total Gradient:
     Atom            X                  Y                   Z
    ------   -----------------  -----------------  -----------------
       1       -0.000480700728    -0.000936964055    -0.000006263250
       2       -0.000011215242    -0.000038224013     0.000017946696
       3       -0.000467297691    -0.000962337228     0.000182255627
       4        0.000045085470    -0.000022380735    -0.000083019761
       5        0.000001322191    -0.000051782732     0.000044471575
       6        0.000030097243     0.000026530067    -0.000042873571
       7       -0.000136081605     0.000002119805    -0.000011305805
       8        0.000494293499     0.000852722014     0.000091452491
       9        0.000412727033     0.001074678737    -0.000235379082
      10        0.000073228940     0.000142297068    -0.000047494412
      11       -0.000056079523    -0.000036879410    -0.000031086399
      12        0.000079716627    -0.000007385218     0.000044879863
      13       -0.000019535255    -0.000051299870    -0.000006938225
      14        0.000038693437     0.000002138507     0.000015187191
      15       -0.000001372683     0.000019076464     0.000007023310
      16       -0.000013952783     0.000011290857     0.000015699565
      17        0.000015916886    -0.000003972787     0.000024643847
      18        0.000000038847    -0.000011205441     0.000005511916
      19       -0.000011213616     0.000007373308     0.000002944746
      20       -0.000006970853    -0.000016307192     0.000014615271
      21        0.000013299789     0.000000511846    -0.000002271594

  **** Optimization is complete! (in 8 steps) ****
    Final optimized geometry and variables:
    Molecular point group: c1

    Geometry (in Angstrom), charge = -1, multiplicity = 1:

    C           -1.318088059872     0.768398321137    -0.748278051557
    C           -2.408945644775     1.343292383626    -0.147943712526
    C            2.080011278826    -0.779950075393    -0.121101380241
    C            0.804168060694    -0.734572941662    -2.098885360544
    C           -1.504280390642     0.757318743826     1.991564623520
    C            3.105402425795    -1.340023929669    -0.861984214789
    C            1.883318038005    -1.294148552358    -2.754985914977
    C           -0.256210061187     0.166277464451    -0.039139345211
    C            0.859257557728    -0.436681019361    -0.726440327471
    C           -2.581793383672     1.376393628682     1.277917434614
    C           -0.431306294437     0.205118720648     1.350887288097
    N            3.047156298256    -1.608531978681    -2.171621652137
    O           -3.577701832816     1.897181851328     1.846101844897
    F            0.513384392792    -0.383583460354     2.152310111258
    H           -1.255080974495     0.814616919574    -1.826069438292
    H           -3.177698228576     1.805335875444    -0.751337377841
    H            2.239293911061    -0.595234757677     0.926027889551
    H           -0.096181396759    -0.550540993859    -2.662847292342
    H           -1.545997834034     0.720441875129     3.069231695900
    H            4.036954623305    -1.586859838281    -0.367987604669
    H            1.806592335821    -1.511159017363    -3.813208265088

*** Psi4 exiting successfully. Buy a developer a beer!
