                               Psi4 1.1 release

  ==> Input File <==

--------------------------------------------------------------------------

memory 5 Gb

molecule phepyrFOH_zwitterion {
  symmetry C1
  0 1
  C      1.885   -1.036   -0.112
  C      0.807   -0.463   0.561
  C      5.266   -1.571   -0.128
  C      3.885   -3.448   -0.739
  C      1.800   -1.079   2.676
  C      6.320   -2.163   -0.810
  C      4.974   -3.993   -1.406
  C      2.921   -1.631   0.608
  C      4.038   -2.224   -0.095
  C      0.764   -0.484   1.955
  C      2.878   -1.652   2.002
  N      6.145   -3.343   -1.422
  O      -0.227   0.043   2.574
  F      3.866   -2.220   2.709
  H      1.904   -1.013   -1.200
  H      0.011   -0.007   -0.025
  H      5.414   -0.615   0.366
  H      2.938   -3.980   -0.730
  H      1.791   -1.109   3.764
  H      7.307   -1.730   -0.888
  H      4.947   -4.937   -1.933
  H      6.932   -3.760   -1.919
  units Angstrom
}

dih_string = "1 8 9 3 105"
set optking fixed_dihedral = $dih_string

optimize('MP2/aug-cc-PVTZ')
--------------------------------------------------------------------------

    Molecular point group: c1
  Charge       = 0
  Multiplicity = 1
  Basis Set: AUG-CC-PVTZ
    Blend: AUG-CC-PVTZ
  Basis Set: (AUG-CC-PVTZ AUX)
    Blend: AUG-CC-PVTZ-JKFIT
  @DF-RHF Final Energy:  -650.08462091163688
    Total Energy =                       -650.0846209116368755
  Basis Set: (AUG-CC-PVTZ AUX)
    Blend: AUG-CC-PVTZ-RI
    Molecular point group: c1
  Basis Set: AUG-CC-PVTZ
    Blend: AUG-CC-PVTZ
  Basis Set: (AUG-CC-PVTZ AUX)
    Blend: AUG-CC-PVTZ-JKFIT
  Basis Set: (AUG-CC-PVTZ AUX)
    Blend: AUG-CC-PVTZ-JKFIT
	 Reference Energy          =    -650.0846209116368755 [Eh]
	 Singles Energy            =      -0.0000000000000006 [Eh]
	 Same-Spin Energy          =      -0.6778178055483204 [Eh]
	 Opposite-Spin Energy      =      -2.0224804258589790 [Eh]
	 Correlation Energy        =      -2.7002982314073001 [Eh]
	 Total Energy              =    -652.7849191430441351 [Eh]
	 SCS Total Energy          =    -652.7375366911837773 [Eh]
  @DF-RHF Final Energy:  -650.09234611671116
    Total Energy =                       -650.0923461167112691
  @DF-RHF Final Energy:  -650.09762469119960
    Total Energy =                       -650.0976246911995986
  @DF-RHF Final Energy:  -650.10049615087439
    Total Energy =                       -650.1004961508745055
  @DF-RHF Final Energy:  -650.10211748261054
    Total Energy =                       -650.1021174826105380
  @DF-RHF Final Energy:  -650.10342423061775
    Total Energy =                       -650.1034242306177475
  @DF-RHF Final Energy:  -650.10469887425211
    Total Energy =                       -650.1046988742521080
  @DF-RHF Final Energy:  -650.10491978459913
    Total Energy =                       -650.1049197845991330
  @DF-RHF Final Energy:  -650.10641943677933
    Total Energy =                       -650.1064194367793334
  @DF-RHF Final Energy:  -650.10651966609885
    Total Energy =                       -650.1065196660988477
    Molecular point group: c1
  Charge       = 0
  Multiplicity = 1
  Basis Set: AUG-CC-PVTZ
    Blend: AUG-CC-PVTZ
  Basis Set: (AUG-CC-PVTZ AUX)
    Blend: AUG-CC-PVTZ-JKFIT

    Orbital Energies (a.u.)
    -----------------------

    Doubly Occupied:

       1A    -26.292635     2A    -20.437531     3A    -15.714218
       4A    -11.368635     5A    -11.365675     6A    -11.329401
       7A    -11.307655     8A    -11.294852     9A    -11.292883
      10A    -11.253958    11A    -11.229132    12A    -11.209665
      13A    -11.178637    14A    -11.178405    15A     -1.607201
      16A     -1.392463    17A     -1.274895    18A     -1.184113
      19A     -1.125408    20A     -1.110965    21A     -1.004529
      22A     -0.991390    23A     -0.944048    24A     -0.910904
      25A     -0.849813    26A     -0.816167    27A     -0.799708
      28A     -0.749023    29A     -0.739362    30A     -0.699660
      31A     -0.689413    32A     -0.687813    33A     -0.673891
      34A     -0.668622    35A     -0.657635    36A     -0.623002
      37A     -0.595319    38A     -0.587129    39A     -0.571418
      40A     -0.548838    41A     -0.506743    42A     -0.499903
      43A     -0.487789    44A     -0.456515    45A     -0.431864
      46A     -0.406607    47A     -0.344360    48A     -0.323719
      49A     -0.234265

  @DF-RHF Final Energy:  -650.10609397445535

   => Energetics <=

    Nuclear Repulsion Energy =            813.5953744029867494
    One-Electron Energy =               -2502.1073825582902828
    Two-Electron Energy =                1038.4059141808481854
    DFT Exchange-Correlation Energy =       0.0000000000000000
    Empirical Dispersion Energy =           0.0000000000000000
    PCM Polarization Energy =               0.0000000000000000
    EFP Energy =                            0.0000000000000000
    Total Energy =                       -650.1060939744554616
  Basis Set: (AUG-CC-PVTZ AUX)
    Blend: AUG-CC-PVTZ-RI
    Molecular point group: c1

    Geometry (in Angstrom), charge = 0, multiplicity = 1:

       Center              X                  Y                   Z               Mass
    ------------   -----------------  -----------------  -----------------  -----------------
           C         -1.404928319492     0.581900268871    -0.742007794424    12.000000000000
           C         -2.435514429538     1.255067576308    -0.141231518281    12.000000000000
           C          2.060744664536     0.120719856089    -0.673927626665    12.000000000000
           C          0.655663340875    -1.655189037353    -1.484326208653    12.000000000000
           C         -1.425749294732     0.838842727132     2.034724187920    12.000000000000
           C          3.086921868947    -0.386129319501    -1.415948172518    12.000000000000
           C          1.706745389718    -2.130547556536    -2.216572579253    12.000000000000
           C         -0.344949514899     0.025164526457     0.004827081122    12.000000000000
           C          0.797948368512    -0.523113784341    -0.654993099991    12.000000000000
           C         -2.518572312039     1.401067760306     1.287770039098    12.000000000000
           C         -0.394097951255     0.228011983878     1.394351025145    12.000000000000
           N          2.894660692629    -1.489990002045    -2.169983813881    14.003074004780
           O         -3.460220557301     2.002263179568     1.845411990757    15.994914619560
           F          0.634753758679    -0.281388879359     2.123110457083    18.998403224000
           H         -1.389917075449     0.495036335725    -1.818689825169     1.007825032070
           H         -3.209627851187     1.680407220678    -0.747956609682     1.007825032070
           H          2.220449939093     1.016802742871    -0.102019269007     1.007825032070
           H         -0.287268402579    -2.170704706835    -1.523206575008     1.007825032070
           H         -1.429972564736     0.907635803912     3.106777125611     1.007825032070
           H          4.067303465373     0.061075157267    -1.482353166161     1.007825032070
           H          1.660510654283    -3.005374411052    -2.843022974791     1.007825032070
           H          3.668980474686    -1.847665699120    -2.704484764238     1.007825032070

  Basis Set: AUG-CC-PVTZ
    Blend: AUG-CC-PVTZ
  Basis Set: (AUG-CC-PVTZ AUX)
    Blend: AUG-CC-PVTZ-JKFIT
  Basis Set: (AUG-CC-PVTZ AUX)
    Blend: AUG-CC-PVTZ-JKFIT
	 Reference Energy          =    -650.1060939744553480 [Eh]
	 Singles Energy            =      -0.0000000000000001 [Eh]
	 Same-Spin Energy          =      -0.6759554069692856 [Eh]
	 Opposite-Spin Energy      =      -2.0219785767561556 [Eh]
	 Correlation Energy        =      -2.6979339837254410 [Eh]
	 Total Energy              =    -652.8040279581807681 [Eh]

	 ================> DF-SCS-MP2 Energies <==================
	-----------------------------------------------------------
	 SCS Same-Spin Scale       =       0.3333333333333333 [-]
	 SCS Opposite-Spin Scale   =       1.2000000000000000 [-]
	 SCS Same-Spin Energy      =      -0.2253184689897618 [Eh]
	 SCS Opposite-Spin Energy  =      -2.4263742921073868 [Eh]
	 SCS Correlation Energy    =      -2.6516927610971486 [Eh]
	 SCS Total Energy          =    -652.7577867355524859 [Eh]
	-----------------------------------------------------------

  -Total Gradient:
     Atom            X                  Y                   Z
    ------   -----------------  -----------------  -----------------
       1        0.014765329369     0.010286916278    -0.001090519766
       2       -0.009738159401     0.008774847641     0.004123601237
       3        0.000241987611     0.012844758644    -0.012669082307
       4       -0.002229387369    -0.003831750857     0.007173037212
       5       -0.007635114434     0.004554347267     0.004568668759
       6       -0.003839045542    -0.003051639467    -0.000101590821
       7        0.001163963921    -0.000745813803     0.001972890122
       8       -0.014090233871    -0.002321191174    -0.002045986045
       9        0.009709441689    -0.009495266561     0.005003747367
      10        0.008092380660    -0.009900904965    -0.004615406794
      11        0.000075628207    -0.009158767623    -0.001058683802
      12       -0.000862639869     0.002706245249    -0.000038374494
      13       -0.001164965261     0.002737770173     0.000933607358
      14       -0.003004631205     0.000246714549     0.000281447273
      15       -0.001527033817     0.000678339987     0.001458755896
      16        0.004031630060    -0.004274869160     0.000991764880
      17        0.000660305961    -0.001502251008    -0.001633057806
      18        0.001746301096     0.000649620410    -0.000402322172
      19        0.001080045229     0.000182499146    -0.002447837120
      20        0.002062570159    -0.000800225254    -0.000678093215
      21        0.000490777415     0.000597848502    -0.000551123405
      22       -0.000029150613     0.000822772021     0.000824557658

*** Psi4 exiting successfully. Buy a developer a beer!
