                               Psi4 1.1 release

  ==> Input File <==

--------------------------------------------------------------------------

molecule phepyr {
  symmetry C1
  0 1
  C      1.885   -1.036   -0.112
  C      0.807   -0.463   0.561
  C      2.921   -1.631   0.608
  C      0.764   -0.484   1.955
  C      2.878   -1.652   2.002
  C      1.757   -2.313   4.802
  C      1.711   0.091   4.837
  C      1.714   -2.280   6.187
  C      1.671   0.017   6.219
  C      1.800   -1.079   2.676
  C      1.755   -1.100   4.122
  N      1.671   -1.142   6.915
  H      1.917   -1.021   -1.198
  H      -0.001   -0.002   0.000
  H      3.760   -2.079   0.084
  H      -0.084   -0.033   2.466
  H      3.693   -2.120   2.550
  H      1.791   -3.264   4.279
  H      1.708   1.056   4.340
  H      1.716   -3.199   6.764
  H      1.635   0.917   6.823
  units Angstrom
}

dih_string = "4 10 11 6 120"
set optking fixed_dihedral = $dih_string

optimize('MP2/aug-cc-PVTZ')
--------------------------------------------------------------------------

    Molecular point group: c1
  Charge       = 0
  Multiplicity = 1
  Basis Set: AUG-CC-PVTZ
    Blend: AUG-CC-PVTZ
  Basis Set: (AUG-CC-PVTZ AUX)
    Blend: AUG-CC-PVTZ-JKFIT
  @DF-RHF Final Energy:  -476.39660202674656
    Total Energy =                       -476.3966020267465638
  Basis Set: (AUG-CC-PVTZ AUX)
    Blend: AUG-CC-PVTZ-RI
    Molecular point group: c1
  Basis Set: AUG-CC-PVTZ
    Blend: AUG-CC-PVTZ
  Basis Set: (AUG-CC-PVTZ AUX)
    Blend: AUG-CC-PVTZ-JKFIT
  Basis Set: (AUG-CC-PVTZ AUX)
    Blend: AUG-CC-PVTZ-JKFIT
	 Reference Energy          =    -476.3966020267465638 [Eh]
	 Singles Energy            =      -0.0000000000000002 [Eh]
	 Same-Spin Energy          =      -0.5345257474655254 [Eh]
	 Opposite-Spin Energy      =      -1.6424158065233718 [Eh]
	 Correlation Energy        =      -2.1769415539888972 [Eh]
	 Total Energy              =    -478.5735435807354747 [Eh]
	 SCS Total Energy          =    -478.5456762437297584 [Eh]
  @DF-RHF Final Energy:  -476.40118641013930
    Total Energy =                       -476.4011864101393030
  @DF-RHF Final Energy:  -476.40163770942524
    Total Energy =                       -476.4016377094252448
  @DF-RHF Final Energy:  -476.40156452195839
    Total Energy =                       -476.4015645219583348
  Charge       = 0
  Multiplicity = 1
  Basis Set: AUG-CC-PVTZ
    Blend: AUG-CC-PVTZ
  Basis Set: (AUG-CC-PVTZ AUX)
    Blend: AUG-CC-PVTZ-JKFIT

    Orbital Energies (a.u.)
    -----------------------

    Doubly Occupied:

       1A    -15.562718     2A    -11.272669     3A    -11.272642
       4A    -11.264410     5A    -11.252103     6A    -11.243686
       7A    -11.243544     8A    -11.242578     9A    -11.242236
      10A    -11.241120    11A    -11.237516    12A    -11.237321
      13A     -1.259425    14A     -1.175053    15A     -1.107961
      16A     -1.035872    17A     -1.026460    18A     -1.018754
      19A     -0.880392    20A     -0.863686    21A     -0.834629
      22A     -0.808141    23A     -0.732405    24A     -0.687533
      25A     -0.671737    26A     -0.657159    27A     -0.634508
      28A     -0.633824    29A     -0.599870    30A     -0.595786
      31A     -0.582892    32A     -0.543949    33A     -0.525948
      34A     -0.510496    35A     -0.509312    36A     -0.500875
      37A     -0.418055    38A     -0.392717    39A     -0.350990
      40A     -0.346020    41A     -0.333022

  @DF-RHF Final Energy:  -476.40155630659217

   => Energetics <=

    Nuclear Repulsion Energy =            606.0593589149376612
    One-Electron Energy =               -1845.8218007392999880
    Two-Electron Energy =                 763.3608855177700434
    DFT Exchange-Correlation Energy =       0.0000000000000000
    Empirical Dispersion Energy =           0.0000000000000000
    PCM Polarization Energy =               0.0000000000000000
    EFP Energy =                            0.0000000000000000
    Total Energy =                       -476.4015563065921697
  Basis Set: (AUG-CC-PVTZ AUX)
    Blend: AUG-CC-PVTZ-RI
    Molecular point group: c1
  Basis Set: AUG-CC-PVTZ
    Blend: AUG-CC-PVTZ
  Basis Set: (AUG-CC-PVTZ AUX)
    Blend: AUG-CC-PVTZ-JKFIT
  Basis Set: (AUG-CC-PVTZ AUX)
    Blend: AUG-CC-PVTZ-JKFIT
	 Reference Energy          =    -476.4015563065921697 [Eh]
	 Singles Energy            =      -0.0000000000000001 [Eh]
	 Same-Spin Energy          =      -0.5338640824311163 [Eh]
	 Opposite-Spin Energy      =      -1.6404393871773355 [Eh]
	 Correlation Energy        =      -2.1743034696084518 [Eh]
	 Total Energy              =    -478.5758597762006161 [Eh]

	 ================> DF-SCS-MP2 Energies <==================
	-----------------------------------------------------------
	 SCS Same-Spin Scale       =       0.3333333333333333 [-]
	 SCS Opposite-Spin Scale   =       1.2000000000000000 [-]
	 SCS Same-Spin Energy      =      -0.1779546941437054 [Eh]
	 SCS Opposite-Spin Energy  =      -1.9685272646128025 [Eh]
	 SCS Correlation Energy    =      -2.1464819587565080 [Eh]
	 SCS Total Energy          =    -478.5480382653486799 [Eh]
	-----------------------------------------------------------

  -Total Gradient:
     Atom            X                  Y                   Z
    ------   -----------------  -----------------  -----------------
       1       -0.000018947033    -0.000025586549     0.000036312025
       2        0.000052032157    -0.000009078861    -0.000017985113
       3       -0.000024658187     0.000048503219    -0.000016973760
       4       -0.001431384056    -0.002629755649    -0.000068338680
       5        0.000055009622    -0.000049631507     0.000051942818
       6       -0.003076976342    -0.000035201028    -0.000129349443
       7        0.000065097660     0.000084791892    -0.000044137407
       8        0.000341821419     0.000092293479     0.000075281599
       9       -0.000300242544    -0.000101738488     0.000009142814
      10        0.000529247321     0.003955932023     0.000120396746
      11        0.003860399884    -0.001320557782     0.000070124161
      12       -0.000016822650    -0.000008760640    -0.000001975989
      13        0.000000990382     0.000005615157    -0.000022001101
      14       -0.000019635107     0.000014359400    -0.000013433217
      15        0.000018120361    -0.000014370116    -0.000011824845
      16       -0.000022509849     0.000014077018     0.000011301360
      17        0.000012766936    -0.000010300607     0.000014118151
      18       -0.000027773266    -0.000033370137    -0.000024866226
      19        0.000018858206     0.000020512733    -0.000029499838
      20       -0.000124576208    -0.000008383770    -0.000012247926
      21        0.000109181297     0.000010650216     0.000004013867

  **** Optimization is complete! (in 5 steps) ****
    Final optimized geometry and variables:
    Molecular point group: c1

    Geometry (in Angstrom), charge = 0, multiplicity = 1:

    C            0.078054489095     0.029127199013    -3.543488963225
    C           -0.961840544167     0.641901964751    -2.857187252096
    C            1.104254199309    -0.585517324617    -2.838382672868
    C           -0.972683200075     0.645006709852    -1.470081176627
    C            1.091646411292    -0.584251548034    -1.451325488855
    C            0.030209747759    -1.196670985008     1.404078978087
    C           -0.086404995718     1.173214188628     1.459792153603
    C           -0.045961973830    -1.183112081731     2.788290578943
    C           -0.160395726789     1.087637086095     2.841444416101
    C            0.059787890897     0.041728487697    -0.754926051720
    C            0.022896076476     0.007752917488     0.709072888938
    N           -0.140035434163    -0.065952466998     3.513091604984
    H            0.086792287263     0.027349861262    -4.622530814989
    H           -1.767613556870     1.109548887760    -3.402116588267
    H            1.913809083683    -1.063560853420    -3.368539292221
    H           -1.787115065775     1.108179585430    -0.932923573458
    H            1.890646333953    -1.056760518358    -0.899284918988
    H            0.087454350499    -2.133046502968     0.869604571437
    H           -0.100357931278     2.135935986724     0.971121687464
    H           -0.043340909446    -2.112138035364     3.341177158119
    H           -0.234455074341     1.986216001909     3.437999244092

*** Psi4 exiting successfully. Buy a developer a beer!
