                               Psi4 1.1 release

  ==> Input File <==

--------------------------------------------------------------------------

memory 5 Gb

molecule phepyrOH_cation {
  symmetry C1
  1 1
  C      1.885   -1.036   -0.112
  C      2.878   -1.652   2.002
  C      0.807   -0.463   0.561
  C      1.800   -1.079   2.676
  C      4.440   -1.719   -1.322
  C      4.716   -3.305   0.469
  C      5.516   -2.309   -1.970
  C      5.786   -3.855   -0.224
  C      2.921   -1.631   0.608
  C      4.040   -2.225   -0.090
  C      0.764   -0.484   1.955
  N      6.150   -3.348   -1.409
  O      -0.288   0.076   2.612
  H      1.904   -1.012   -1.199
  H      3.678   -2.112   2.578
  H      0.003   -0.001   -0.006
  H      1.772   -1.098   3.762
  H      3.931   -0.877   -1.782
  H      4.425   -3.721   1.429
  H      5.897   -1.982   -2.928
  H      6.368   -4.693   0.134
  H      6.938   -3.767   -1.902
  H      -0.355   1.020   2.398
  units Angstrom
}

dih_string = "3 11 13 23 300"
set optking fixed_dihedral = $dih_string

optimize('MP2/aug-cc-PVTZ')
--------------------------------------------------------------------------

    Molecular point group: c1
  Charge       = 1
  Multiplicity = 1
  Basis Set: AUG-CC-PVTZ
    Blend: AUG-CC-PVTZ
  Basis Set: (AUG-CC-PVTZ AUX)
    Blend: AUG-CC-PVTZ-JKFIT
  @DF-RHF Final Energy:  -551.67166638785227
    Total Energy =                       -551.6716663878522695
  Basis Set: (AUG-CC-PVTZ AUX)
    Blend: AUG-CC-PVTZ-RI
    Molecular point group: c1
  Basis Set: AUG-CC-PVTZ
    Blend: AUG-CC-PVTZ
  Basis Set: (AUG-CC-PVTZ AUX)
    Blend: AUG-CC-PVTZ-JKFIT
  Basis Set: (AUG-CC-PVTZ AUX)
    Blend: AUG-CC-PVTZ-JKFIT
	 Reference Energy          =    -551.6716663878522695 [Eh]
	 Singles Energy            =      -0.0000000000000003 [Eh]
	 Same-Spin Energy          =      -0.5962516258918047 [Eh]
	 Opposite-Spin Energy      =      -1.8247820425251875 [Eh]
	 Correlation Energy        =      -2.4210336684169929 [Eh]
	 Total Energy              =    -554.0927000562692228 [Eh]
	 SCS Total Energy          =    -554.0601553808464814 [Eh]
  @DF-RHF Final Energy:  -551.67655327056013
    Total Energy =                       -551.6765532705601345
  @DF-RHF Final Energy:  -551.67752343102393
    Total Energy =                       -551.6775234310239284
  @DF-RHF Final Energy:  -551.67757456824711
    Total Energy =                       -551.6775745682471097
  @DF-RHF Final Energy:  -551.67755388149976
    Total Energy =                       -551.6775538814997617
  @DF-RHF Final Energy:  -551.67756569789833
    Total Energy =                       -551.6775656978983307
  @DF-RHF Final Energy:  -551.67758148022563
    Total Energy =                       -551.6775814802256264
  @DF-RHF Final Energy:  -551.67755092040079
    Total Energy =                       -551.6775509204007903
  @DF-RHF Final Energy:  -551.67753640357432
    Total Energy =                       -551.6775364035743223
  @DF-RHF Final Energy:  -551.67755185689282
    Total Energy =                       -551.6775518568928192
  @DF-RHF Final Energy:  -551.67748986321010
    Total Energy =                       -551.6774898632100985
  @DF-RHF Final Energy:  -551.67754816071283
    Total Energy =                       -551.6775481607128313
  @DF-RHF Final Energy:  -551.67735555699369
    Total Energy =                       -551.6773555569936889
  @DF-RHF Final Energy:  -551.67749513219053
    Total Energy =                       -551.6774951321905291
  @DF-RHF Final Energy:  -551.67753855650290
    Total Energy =                       -551.6775385565028955
  @DF-RHF Final Energy:  -551.67754689189269
    Total Energy =                       -551.6775468918926890
  @DF-RHF Final Energy:  -551.67756602633744
    Total Energy =                       -551.6775660263374448
  @DF-RHF Final Energy:  -551.67751077887146
    Total Energy =                       -551.6775107788714649
  @DF-RHF Final Energy:  -551.67768907752190
    Total Energy =                       -551.6776890775219044
  @DF-RHF Final Energy:  -551.67756646652015
    Total Energy =                       -551.6775664665201475
  @DF-RHF Final Energy:  -551.67753126099376
    Total Energy =                       -551.6775312609937600
  @DF-RHF Final Energy:  -551.67754028836362
    Total Energy =                       -551.6775402883636161
  Charge       = 1
  Multiplicity = 1
  Basis Set: AUG-CC-PVTZ
    Blend: AUG-CC-PVTZ
  Basis Set: (AUG-CC-PVTZ AUX)
    Blend: AUG-CC-PVTZ-JKFIT

    Orbital Energies (a.u.)
    -----------------------

    Doubly Occupied:

       1A    -20.694339     2A    -15.829655     3A    -11.481057
       4A    -11.480857     5A    -11.451057     6A    -11.428108
       7A    -11.411096     8A    -11.410883     9A    -11.378082
      10A    -11.376938    11A    -11.375851    12A    -11.354721
      13A    -11.350994    14A     -1.515378    15A     -1.508395
      16A     -1.319816    17A     -1.266820    18A     -1.239114
      19A     -1.157158    20A     -1.155176    21A     -1.063966
      22A     -1.058173    23A     -0.973511    24A     -0.963167
      25A     -0.953873    26A     -0.868855    27A     -0.862371
      28A     -0.855364    29A     -0.819354    30A     -0.801642
      31A     -0.780909    32A     -0.771120    33A     -0.758370
      34A     -0.746737    35A     -0.725986    36A     -0.710231
      37A     -0.702808    38A     -0.662527    39A     -0.653125
      40A     -0.645281    41A     -0.601948    42A     -0.572771
      43A     -0.540170    44A     -0.471930    45A     -0.445621

  @DF-RHF Final Energy:  -551.67754866167252

   => Energetics <=

    Nuclear Repulsion Energy =            713.1199867142497624
    One-Electron Energy =               -2149.2044674517164822
    Two-Electron Energy =                 884.4069320757942023
    DFT Exchange-Correlation Energy =       0.0000000000000000
    Empirical Dispersion Energy =           0.0000000000000000
    PCM Polarization Energy =               0.0000000000000000
    EFP Energy =                            0.0000000000000000
    Total Energy =                       -551.6775486616725175
  Basis Set: (AUG-CC-PVTZ AUX)
    Blend: AUG-CC-PVTZ-RI
    Molecular point group: c1
  Basis Set: AUG-CC-PVTZ
    Blend: AUG-CC-PVTZ
  Basis Set: (AUG-CC-PVTZ AUX)
    Blend: AUG-CC-PVTZ-JKFIT
  Basis Set: (AUG-CC-PVTZ AUX)
    Blend: AUG-CC-PVTZ-JKFIT
	 Reference Energy          =    -551.6775486616725175 [Eh]
	 Singles Energy            =      -0.0000000000000004 [Eh]
	 Same-Spin Energy          =      -0.5955613724415789 [Eh]
	 Opposite-Spin Energy      =      -1.8231579533210294 [Eh]
	 Correlation Energy        =      -2.4187193257626087 [Eh]
	 Total Energy              =    -554.0962679874351124 [Eh]

	 ================> DF-SCS-MP2 Energies <==================
	-----------------------------------------------------------
	 SCS Same-Spin Scale       =       0.3333333333333333 [-]
	 SCS Opposite-Spin Scale   =       1.2000000000000000 [-]
	 SCS Same-Spin Energy      =      -0.1985204574805263 [Eh]
	 SCS Opposite-Spin Energy  =      -2.1877895439852351 [Eh]
	 SCS Correlation Energy    =      -2.3863100014657617 [Eh]
	 SCS Total Energy          =    -554.0638586631382623 [Eh]
	-----------------------------------------------------------

  -Total Gradient:
     Atom            X                  Y                   Z
    ------   -----------------  -----------------  -----------------
       1       -0.000020125095     0.000005112913    -0.000006429833
       2        0.000017882600     0.000028388613     0.000008301712
       3       -0.001381349082    -0.003063574901    -0.000084215809
       4       -0.000066167021    -0.000059597500    -0.000006273180
       5        0.000026832052     0.000010734781    -0.000009072474
       6        0.000017622219    -0.000002148975     0.000012858011
       7       -0.000007880876    -0.000004194098    -0.000019858781
       8       -0.000009988886    -0.000025180530    -0.000007987208
       9        0.000014730655     0.000003928747    -0.000002446821
      10       -0.000055467855    -0.000031154926    -0.000024757332
      11        0.002795956422     0.005078585643     0.000947637837
      12        0.000008340392     0.000012854668     0.000013579796
      13       -0.003991674488    -0.003152573270    -0.004121652255
      14        0.000000793612    -0.000007084805     0.000012640604
      15       -0.000000993624    -0.000018490578    -0.000009866983
      16        0.000024184574     0.000025284175     0.000012737391
      17        0.000018392827     0.000029396592     0.000004585623
      18        0.000011468482    -0.000005470172     0.000010323600
      19        0.000001164637     0.000018415345     0.000006001176
      20        0.000003090504     0.000004457019     0.000003425248
      21       -0.000001811681     0.000002345464     0.000002038530
      22        0.000001200020     0.000005113099     0.000001670227
      23        0.002593799605     0.001144852694     0.003256760927

  **** Optimization is complete! (in 23 steps) ****
    Final optimized geometry and variables:
    Molecular point group: c1

    Geometry (in Angstrom), charge = 1, multiplicity = 1:

    C           -1.264020259062     0.763025696649    -0.561819597530
    C           -0.306451263345     0.098111333950     1.545105027075
    C           -2.338709190167     1.319934387661     0.102380495066
    C           -1.365558143018     0.681280419921     2.211034971370
    C            1.296584597283    -0.003490501372    -1.803152640567
    C            1.589446404422    -1.542702962069    -0.001495888686
    C            2.353046335154    -0.589182939862    -2.453700197685
    C            2.643097695865    -2.106074706909    -0.675834816874
    C           -0.234603384308     0.138235841769     0.149198334757
    C            0.878885890674    -0.466217092850    -0.548499630894
    C           -2.380457515532     1.306001207389     1.494169107672
    N            2.995107867622    -1.618213322263    -1.876767010274
    O           -3.455671350524     1.770178658371     2.182552016089
    H           -1.263850474454     0.759014242954    -1.641439613369
    H            0.489830017759    -0.347846388526     2.121755925561
    H           -3.156339256407     1.758562605073    -0.448704041910
    H           -1.421333676905     0.670687712406     3.287996401192
    H            0.814717205377     0.840796349623    -2.267768924879
    H            1.302757909985    -1.968492940671     0.945769120145
    H            2.716966685319    -0.263680784039    -3.413932508151
    H            3.213181789118    -2.940082844406    -0.301810471650
    H            3.773288573700    -2.041998053333    -2.365293180007
    H           -3.614241991697     2.698625614878     1.982023068574

*** Psi4 exiting successfully. Buy a developer a beer!
