                              Psi4 1.0.0 Driver

  ==> Input File <==

--------------------------------------------------------------------------

memory 1000 mb

molecule butane {
  symmetry C1
  0 1
  H      1.604   0.760   -8.260
  H      1.745   2.388   -8.880
  H      2.043   1.024   -9.930
  C      2.142   1.395   -8.932
  H      4.169   2.051   -9.210
  H      3.731   1.788   -7.539
  C      3.631   1.416   -8.537
  H      4.081   -0.495   -7.665
  H      3.682   -0.566   -9.364
  C      4.203   -0.012   -8.612
  H      6.097   -0.940   -9.019
  H      6.222   0.606   -8.216
  H      5.822   0.534   -9.914
  C      5.700   0.052   -8.967
  units Angstrom
}

dih_string = "4 7 10 14 150"
set optking fixed_dihedral = $dih_string

optimize('MP2/6-31G(d)')
--------------------------------------------------------------------------

    Molecular point group: c1
  Charge       = 0
  Multiplicity = 1
  Basis Set: 6-31G(D)
  Basis Set:
  @DF-RHF Final Energy:  -157.29098341590540
    Total Energy =                       -157.2909834159055436
  Basis Set:
    Molecular point group: c1
  Basis Set: 6-31G(D)
  Basis Set:
  Basis Set:
	 Reference Energy          =    -157.2909834159054014 [Eh]
	 Singles Energy            =      -0.0000000000000000 [Eh]
	 Same-Spin Energy          =      -0.1243857402613427 [Eh]
	 Opposite-Spin Energy      =      -0.4202669848637348 [Eh]
	 Correlation Energy        =      -0.5446527251250775 [Eh]
	 Total Energy              =    -157.8356361410304771 [Eh]
	 SCS Total Energy          =    -157.8367657111623430 [Eh]
  Basis Set: 6-31G(D)
  Basis Set:
  @DF-RHF Final Energy:  -157.29392699706383
    Total Energy =                       -157.2939269970641476
  Basis Set:
  Basis Set: 6-31G(D)
  Basis Set:
  @DF-RHF Final Energy:  -157.29477285452202
    Total Energy =                       -157.2947728545220798
  @DF-RHF Final Energy:  -157.29507601869105
    Total Energy =                       -157.2950760186909349
  @DF-RHF Final Energy:  -157.29516175119727
    Total Energy =                       -157.2951617511972131
  @DF-RHF Final Energy:  -157.29518936124418
    Total Energy =                       -157.2951893612442973
  @DF-RHF Final Energy:  -157.29516431582951
    Total Energy =                       -157.2951643158299362
	 Singles Energy            =      -0.0000000000000000 [Eh]
	 Same-Spin Energy          =      -0.1243770557598854 [Eh]
	 Opposite-Spin Energy      =      -0.4223039008499802 [Eh]
	 Correlation Energy        =      -0.5466809566098656 [Eh]
	 Total Energy              =    -157.8418452724393717 [Eh]
	 SCS Total Energy          =    -157.8433880154361191 [Eh]
  Charge       = 0
  Multiplicity = 1
  Basis Set: 6-31G(D)
  Basis Set:

    Orbital Energies (a.u.)
    -----------------------

    Doubly Occupied:

       1A    -11.215637     2A    -11.215054     3A    -11.210393
       4A    -11.210387     5A     -1.069210     6A     -0.979664
       7A     -0.859304     8A     -0.786551     9A     -0.635319
      10A     -0.582609    11A     -0.582422    12A     -0.561056
      13A     -0.512081    14A     -0.498982    15A     -0.465675
      16A     -0.458291    17A     -0.455293

  @DF-RHF Final Energy:  -157.29517429723305

   => Energetics <=

    Nuclear Repulsion Energy =            130.7985557223525177
    One-Electron Energy =                -469.5916054130247517
    Two-Electron Energy =                 181.4978753934389033
    DFT Exchange-Correlation Energy =       0.0000000000000000
    Empirical Dispersion Energy =           0.0000000000000000
    PCM Polarization Energy =               0.0000000000000000
    EFP Energy =                            0.0000000000000000
    Total Energy =                       -157.2951742972333022
  Basis Set:
    Molecular point group: c1
  Basis Set: 6-31G(D)
  Basis Set:
  Basis Set:
	 Reference Energy          =    -157.2951742972330464 [Eh]
	 Singles Energy            =      -0.0000000000000000 [Eh]
	 Same-Spin Energy          =      -0.1243734931169250 [Eh]
	 Opposite-Spin Energy      =      -0.4222981462409157 [Eh]
	 Correlation Energy        =      -0.5466716393578407 [Eh]
	 Total Energy              =    -157.8418459365908859 [Eh]

	 ================> DF-SCS-MP2 Energies <==================
	-----------------------------------------------------------
	 SCS Same-Spin Scale       =       0.3333333333333333 [-]
	 SCS Opposite-Spin Scale   =       1.2000000000000000 [-]
	 SCS Same-Spin Energy      =      -0.0414578310389750 [Eh]
	 SCS Opposite-Spin Energy  =      -0.5067577754890987 [Eh]
	 SCS Correlation Energy    =      -0.5482156065280738 [Eh]
	 SCS Total Energy          =    -157.8433899037611070 [Eh]
	-----------------------------------------------------------

  -Total Gradient:
     Atom            X                  Y                   Z
    ------   -----------------  -----------------  -----------------
       1       -0.000008945105    -0.000004502137    -0.000002631330
       2       -0.000006114610     0.000001519444     0.000001923790
       3        0.000000865668     0.000003958770    -0.000000954766
       4        0.000807495512     0.000511394764    -0.003073536522
       5       -0.000001293575    -0.000000460331     0.000016205160
       6       -0.000007445913     0.000004260305    -0.000007117756
       7       -0.001393413736    -0.000754980903     0.003045524479
       8        0.000008012443    -0.000003681969    -0.000007447586
       9        0.000001644279    -0.000001020847     0.000016172175
      10        0.001316946627     0.000429527471     0.003142814587
      11        0.000005205440    -0.000002234656     0.000002057926
      12        0.000007705340     0.000004866963    -0.000001224671
      13       -0.000001786584    -0.000003724907    -0.000001514727
      14       -0.000728875787    -0.000184921967    -0.003130270761

  **** Optimization is complete! (in 8 steps) ****
    Final optimized geometry and variables:
    Molecular point group: c1

    Geometry (in Angstrom), charge = 0, multiplicity = 1:

    H           -2.370391881210     0.027526367659     0.496104896500
    H           -2.227956064439     1.692243023697    -0.081902561707
    H           -1.928640135947     0.342013368861    -1.185548379493
    C           -1.795249166688     0.690657384700    -0.157568651231
    H            0.217658718680     1.351822237925    -0.471461637451
    H           -0.176959736198     1.113835622452     1.218559872358
    C           -0.317420561357     0.687714721825     0.218797000790
    H            0.147863383204    -1.235817644859     1.098968988709
    H           -0.203997026787    -1.294584107019    -0.616046202541
    C            0.312750262353    -0.707299548057     0.153286950870
    H            2.231529200584    -1.677236304714    -0.203258914418
    H            2.357251200589    -0.082573655093     0.549684484645
    H            1.958163650891    -0.218221580489    -1.166226551717
    C            1.799539741629    -0.672668896916    -0.184185981456

*** Psi4 exiting successfully. Buy a developer a beer!
