                              Psi4 1.0.0 Driver

  ==> Input File <==

--------------------------------------------------------------------------

memory 1000 mb

molecule butane {
  symmetry C1
  0 1
  H      1.604   0.760   -8.260
  H      1.745   2.388   -8.880
  H      2.043   1.024   -9.930
  C      2.142   1.395   -8.932
  H      4.169   2.051   -9.210
  H      3.731   1.788   -7.539
  C      3.631   1.416   -8.537
  H      4.882   -0.081   -9.436
  H      4.721   -0.237   -7.703
  C      4.203   -0.012   -8.612
  H      3.451   -2.008   -8.862
  H      2.535   -0.792   -9.718
  H      2.373   -0.948   -7.986
  C      3.053   -1.016   -8.809
  units Angstrom
}

dih_string = "4 7 10 14 350"
set optking fixed_dihedral = $dih_string

optimize('B3LYP/cc-PVDZ')
--------------------------------------------------------------------------

    Molecular point group: c1
  Charge       = 0
  Multiplicity = 1
  Basis Set: CC-PVDZ
   => B3LYP Composite Functional <=
  Basis Set:
  @DF-RKS Final Energy:  -158.43162362429928
    Total Energy =                       -158.4316236242992773
    Molecular point group: c1
  Basis Set: CC-PVDZ
  Basis Set:
   => B3LYP Composite Functional <=
  Basis Set: CC-PVDZ
   => B3LYP Composite Functional <=
  Basis Set:
  @DF-RKS Final Energy:  -158.44201262238494
    Total Energy =                       -158.4420126223849365
  Basis Set: CC-PVDZ
  Basis Set:
   => B3LYP Composite Functional <=
  Basis Set: CC-PVDZ
   => B3LYP Composite Functional <=
  Basis Set:
  @DF-RKS Final Energy:  -158.44715477431075
    Total Energy =                       -158.4471547743107465
  Basis Set: CC-PVDZ
  Basis Set:
  @DF-RKS Final Energy:  -158.44932533292541
    Total Energy =                       -158.4493253329254117
  @DF-RKS Final Energy:  -158.45012177476278
    Total Energy =                       -158.4501217747627777
   => B3LYP Composite Functional <=
  Basis Set:
  @DF-RKS Final Energy:  -158.45030983341707
    Total Energy =                       -158.4503098334170659
  Basis Set: CC-PVDZ
  Basis Set:
   => B3LYP Composite Functional <=
  Basis Set: CC-PVDZ
   => B3LYP Composite Functional <=
  Basis Set:
  @DF-RKS Final Energy:  -158.45031581334572
    Total Energy =                       -158.4503158133457248
  Basis Set: CC-PVDZ
  Basis Set:
   => B3LYP Composite Functional <=
  Charge       = 0
  Multiplicity = 1
  Basis Set: CC-PVDZ
   => B3LYP Composite Functional <=
  Basis Set:

    Orbital Energies (a.u.)
    -----------------------

    Doubly Occupied:

       1A    -10.180343     2A    -10.180209     3A    -10.175202
       4A    -10.175175     5A     -0.786293     6A     -0.715851
       7A     -0.640582     8A     -0.556371     9A     -0.459660
      10A     -0.444761    11A     -0.404220    12A     -0.388378
      13A     -0.372936    14A     -0.360269    15A     -0.326947
      16A     -0.321248    17A     -0.305132

  @DF-RKS Final Energy:  -158.45031883160209

   => Energetics <=

    Nuclear Repulsion Energy =            131.7445903933968623
    One-Electron Energy =                -472.0048807567501967
    Two-Electron Energy =                 202.3930197051092534
    DFT Exchange-Correlation Energy =     -20.5830481733580513
    Empirical Dispersion Energy =           0.0000000000000000
    PCM Polarization Energy =               0.0000000000000000
    EFP Energy =                            0.0000000000000000
    Total Energy =                       -158.4503188316020896
    Molecular point group: c1
  Basis Set: CC-PVDZ
  Basis Set:
   => B3LYP Composite Functional <=

  -Total Gradient:
     Atom            X                  Y                   Z
    ------   -----------------  -----------------  -----------------
       1        0.000030329769     0.000005277270    -0.000001060037
       2       -0.000003649565     0.000013047945     0.000001906582
       3        0.000008310956     0.000000259880     0.000003207416
       4       -0.000462976213    -0.000268657512     0.002302295816
       5        0.000008369861     0.000021062262    -0.000013181590
       6        0.000023108263     0.000017795182     0.000042214825
       7        0.000671906049     0.000361125175    -0.004406356880
       8        0.000037776365     0.000005517488    -0.000033211820
       9        0.000015889019    -0.000008382405     0.000018098148
      10       -0.000385767070    -0.000248275298     0.004448826579
      11        0.000005616652    -0.000012669028    -0.000001280599
      12        0.000023780954     0.000016115373     0.000010723781
      13        0.000007642955     0.000005746267    -0.000001359126
      14        0.000069462479     0.000111585420    -0.002363546614

  **** Optimization is complete! (in 8 steps) ****
    Final optimized geometry and variables:
    Molecular point group: c1

    Geometry (in Angstrom), charge = 0, multiplicity = 1:

    H           -1.755482496443     0.576375713403     0.553974038390
    H           -1.430449744238     2.195781510016    -0.098295801575
    H           -1.408720750782     0.786078138387    -1.176747703904
    C           -1.137325930803     1.135273088824    -0.166346460067
    H            0.927205428390     1.614072372258    -0.583482794176
    H            0.556571356497     1.405257177249     1.118876635528
    C            0.361256543415     0.978540240811     0.118800628800
    H            1.606985206008    -0.556010662529    -0.803018480382
    H            1.583584343599    -0.628493443641     0.950041292364
    C            0.936520556473    -0.469124223841     0.070659989241
    H            0.438604418441    -2.585109859067    -0.046569201020
    H           -0.709068803463    -1.543725480566    -0.913717403339
    H           -0.755547434249    -1.635673692929     0.860817100320
    C           -0.080974215030    -1.613492870651    -0.011513897194

*** Psi4 exiting successfully. Buy a developer a beer!
