                               Psi4 1.1 release

  ==> Input File <==

--------------------------------------------------------------------------

memory 5 Gb

molecule phepyrOH_cation {
  symmetry C1
  1 1
  C      1.885   -1.036   -0.112
  C      2.878   -1.652   2.002
  C      0.807   -0.463   0.561
  C      1.800   -1.079   2.676
  C      4.440   -1.719   -1.322
  C      4.716   -3.305   0.469
  C      5.516   -2.309   -1.970
  C      5.786   -3.855   -0.224
  C      2.921   -1.631   0.608
  C      4.040   -2.225   -0.090
  C      0.764   -0.484   1.955
  N      6.150   -3.348   -1.409
  O      -0.288   0.076   2.612
  H      1.904   -1.012   -1.199
  H      3.678   -2.112   2.578
  H      0.003   -0.001   -0.006
  H      1.772   -1.098   3.762
  H      3.931   -0.877   -1.782
  H      4.425   -3.721   1.429
  H      5.897   -1.982   -2.928
  H      6.368   -4.693   0.134
  H      6.938   -3.767   -1.902
  H      -0.652   0.814   2.097
  units Angstrom
}

dih_string = "3 11 13 23 330"
set optking fixed_dihedral = $dih_string

optimize('MP2/aug-cc-PVTZ')
--------------------------------------------------------------------------

    Molecular point group: c1
  Charge       = 1
  Multiplicity = 1
  Basis Set: AUG-CC-PVTZ
    Blend: AUG-CC-PVTZ
  Basis Set: (AUG-CC-PVTZ AUX)
    Blend: AUG-CC-PVTZ-JKFIT
  @DF-RHF Final Energy:  -551.67450459051383
    Total Energy =                       -551.6745045905138340
  Basis Set: (AUG-CC-PVTZ AUX)
    Blend: AUG-CC-PVTZ-RI
    Molecular point group: c1
  Basis Set: AUG-CC-PVTZ
    Blend: AUG-CC-PVTZ
  Basis Set: (AUG-CC-PVTZ AUX)
    Blend: AUG-CC-PVTZ-JKFIT
  Basis Set: (AUG-CC-PVTZ AUX)
    Blend: AUG-CC-PVTZ-JKFIT
	 Reference Energy          =    -551.6745045905138340 [Eh]
	 Singles Energy            =      -0.0000000000000002 [Eh]
	 Same-Spin Energy          =      -0.5965550549386559 [Eh]
	 Opposite-Spin Energy      =      -1.8252802630193303 [Eh]
	 Correlation Energy        =      -2.4218353179579863 [Eh]
	 Total Energy              =    -554.0963399084718048 [Eh]
	 SCS Total Energy          =    -554.0636925911165918 [Eh]
  @DF-RHF Final Energy:  -551.67985424984272
    Total Energy =                       -551.6798542498427196
  @DF-RHF Final Energy:  -551.68114052595990
    Total Energy =                       -551.6811405259599042
  @DF-RHF Final Energy:  -551.68122674327128
    Total Energy =                       -551.6812267432712815
  @DF-RHF Final Energy:  -551.68123703555159
    Total Energy =                       -551.6812370355515895
  @DF-RHF Final Energy:  -551.68123865272219
    Total Energy =                       -551.6812386527221861
  Charge       = 1
  Multiplicity = 1
  Basis Set: AUG-CC-PVTZ
    Blend: AUG-CC-PVTZ
  Basis Set: (AUG-CC-PVTZ AUX)
    Blend: AUG-CC-PVTZ-JKFIT

    Orbital Energies (a.u.)
    -----------------------

    Doubly Occupied:

       1A    -20.705233     2A    -15.826815     3A    -11.478963
       4A    -11.478764     5A    -11.449581     6A    -11.434234
       7A    -11.408952     8A    -11.408668     9A    -11.380060
      10A    -11.377196    11A    -11.373833    12A    -11.355759
      13A    -11.349772    14A     -1.527810    15A     -1.505928
      16A     -1.318653    17A     -1.266646    18A     -1.236991
      19A     -1.157360    20A     -1.156472    21A     -1.062006
      22A     -1.057723    23A     -0.978022    24A     -0.961375
      25A     -0.954347    26A     -0.872201    27A     -0.861867
      28A     -0.855541    29A     -0.819650    30A     -0.799920
      31A     -0.782295    32A     -0.770742    33A     -0.758593
      34A     -0.737310    35A     -0.726154    36A     -0.713021
      37A     -0.701836    38A     -0.674210    39A     -0.661729
      40A     -0.642565    41A     -0.614687    42A     -0.569770
      43A     -0.538653    44A     -0.474017    45A     -0.438975

  @DF-RHF Final Energy:  -551.68124570200212

   => Energetics <=

    Nuclear Repulsion Energy =            713.4472544695006491
    One-Electron Energy =               -2149.8072001450145763
    Two-Electron Energy =                 884.6786999735118115
    DFT Exchange-Correlation Energy =       0.0000000000000000
    Empirical Dispersion Energy =           0.0000000000000000
    PCM Polarization Energy =               0.0000000000000000
    EFP Energy =                            0.0000000000000000
    Total Energy =                       -551.6812457020021156
  Basis Set: (AUG-CC-PVTZ AUX)
    Blend: AUG-CC-PVTZ-RI
    Molecular point group: c1
  Basis Set: AUG-CC-PVTZ
    Blend: AUG-CC-PVTZ
  Basis Set: (AUG-CC-PVTZ AUX)
    Blend: AUG-CC-PVTZ-JKFIT
  Basis Set: (AUG-CC-PVTZ AUX)
    Blend: AUG-CC-PVTZ-JKFIT
	 Reference Energy          =    -551.6812457020021156 [Eh]
	 Singles Energy            =      -0.0000000000000001 [Eh]
	 Same-Spin Energy          =      -0.5957275191088282 [Eh]
	 Opposite-Spin Energy      =      -1.8233561100351341 [Eh]
	 Correlation Energy        =      -2.4190836291439624 [Eh]
	 Total Energy              =    -554.1003293311460993 [Eh]

	 ================> DF-SCS-MP2 Energies <==================
	-----------------------------------------------------------
	 SCS Same-Spin Scale       =       0.3333333333333333 [-]
	 SCS Opposite-Spin Scale   =       1.2000000000000000 [-]
	 SCS Same-Spin Energy      =      -0.1985758397029427 [Eh]
	 SCS Opposite-Spin Energy  =      -2.1880273320421608 [Eh]
	 SCS Correlation Energy    =      -2.3866031717451035 [Eh]
	 SCS Total Energy          =    -554.0678488737472662 [Eh]
	-----------------------------------------------------------

  -Total Gradient:
     Atom            X                  Y                   Z
    ------   -----------------  -----------------  -----------------
       1       -0.000000138345     0.000049441834    -0.000007137859
       2       -0.000024930284    -0.000009084788     0.000070848088
       3       -0.001404797016    -0.002798138020    -0.000135545018
       4        0.000077690830    -0.000000674009     0.000003346772
       5        0.000003018307     0.000031265906    -0.000022237272
       6        0.000008232110    -0.000031148237     0.000030941024
       7        0.000005753666    -0.000024085334     0.000014292320
       8        0.000004324042     0.000015255306    -0.000015148748
       9       -0.000023911607    -0.000010317200    -0.000014806322
      10        0.000011410278    -0.000014688737    -0.000026644204
      11        0.002748585227     0.004994462468     0.000670320774
      12        0.000003196125     0.000001338321    -0.000005367656
      13       -0.003825689007    -0.004816934918    -0.002402453428
      14        0.000014484204    -0.000013715021     0.000007443227
      15        0.000007541852     0.000006897342    -0.000023677522
      16       -0.000002557531     0.000010527154     0.000002822018
      17       -0.000030692664     0.000002810916     0.000007972171
      18       -0.000007586010     0.000000681055     0.000014510857
      19       -0.000010837512     0.000009983725    -0.000006242037
      20        0.000008199458    -0.000007859935    -0.000005888520
      21        0.000010525154    -0.000003193760    -0.000008016778
      22        0.000007426701    -0.000003299199    -0.000003263131
      23        0.002420752015     0.002610475131     0.001853931261

  **** Optimization is complete! (in 7 steps) ****
    Final optimized geometry and variables:
    Molecular point group: c1

    Geometry (in Angstrom), charge = 1, multiplicity = 1:

    C           -1.256833370544     0.777455579760    -0.562473913599
    C           -0.328774452596     0.072689475137     1.542381375923
    C           -2.335466347628     1.330077864419     0.097161759588
    C           -1.389986479526     0.648689408903     2.206350809191
    C            1.298320780355     0.001074741902    -1.801952095242
    C            1.599770396011    -1.532344858625     0.002749657293
    C            2.360800405825    -0.576782162315    -2.448687044277
    C            2.659626859214    -2.087393375623    -0.667779752630
    C           -0.238103561129     0.133633040575     0.146970123328
    C            0.879966629427    -0.462072024223    -0.546686269687
    C           -2.396630886911     1.289529009488     1.488481544644
    N            3.011104125058    -1.599490585131    -1.869127821513
    O           -3.442074790420     1.766418891696     2.192208182095
    H           -1.245441446632     0.795604904981    -1.641747084873
    H            0.458259551654    -0.384261770234     2.122778505470
    H           -3.136795884341     1.787679858997    -0.463735171042
    H           -1.455308841319     0.624816536380     3.282615092786
    H            0.812333640306     0.840783337948    -2.270335963064
    H            1.315694116925    -1.960303310512     0.949702969594
    H            2.723815119755    -0.249344441300    -3.408611262046
    H            3.235587661062    -2.915807423822    -0.290311393586
    H            3.794076283269    -2.017234490158    -2.354811826710
    H           -3.864164255420     2.495143489838     1.724006649802

*** Psi4 exiting successfully. Buy a developer a beer!
