                              Psi4 1.0.0 Driver

  ==> Input File <==

--------------------------------------------------------------------------

memory 1000 mb

molecule butane {
  symmetry C1
  0 1
  H      1.604   0.760   -8.260
  H      1.745   2.388   -8.880
  H      2.043   1.024   -9.930
  C      2.142   1.395   -8.932
  H      4.169   2.051   -9.210
  H      3.731   1.788   -7.539
  C      3.631   1.416   -8.537
  H      4.266   -0.317   -9.635
  H      5.179   -0.029   -8.175
  C      4.203   -0.012   -8.612
  H      3.678   -1.968   -7.897
  H      2.304   -0.960   -8.281
  H      3.218   -0.671   -6.820
  C      3.281   -0.976   -7.844
  units Angstrom
}

dih_string = "4 7 10 14 310"
set optking fixed_dihedral = $dih_string

optimize('MP2/6-31G(d)')
--------------------------------------------------------------------------

    Molecular point group: c1
  Charge       = 0
  Multiplicity = 1
  Basis Set: 6-31G(D)
  Basis Set:
  @DF-RHF Final Energy:  -157.28733292070385
    Total Energy =                       -157.2873329207039319
  Basis Set:
    Molecular point group: c1
  Basis Set: 6-31G(D)
  Basis Set:
  Basis Set:
	 Reference Energy          =    -157.2873329207038466 [Eh]
	 Singles Energy            =      -0.0000000000000000 [Eh]
	 Same-Spin Energy          =      -0.1252493609050215 [Eh]
	 Opposite-Spin Energy      =      -0.4211034783742775 [Eh]
	 Correlation Energy        =      -0.5463528392792990 [Eh]
	 Total Energy              =    -157.8336857599831546 [Eh]
	 SCS Total Energy          =    -157.8344068817213213 [Eh]
  Basis Set: 6-31G(D)
  Basis Set:
  @DF-RHF Final Energy:  -157.29288098699217
    Total Energy =                       -157.2928809869923157
  Basis Set:
  Basis Set: 6-31G(D)
  Basis Set:
  @DF-RHF Final Energy:  -157.29429632954822
    Total Energy =                       -157.2942963295481604
  @DF-RHF Final Energy:  -157.29516176364004
    Total Energy =                       -157.2951617636399817
  @DF-RHF Final Energy:  -157.29540764861801
    Total Energy =                       -157.2954076486180952
  @DF-RHF Final Energy:  -157.29545462021730
    Total Energy =                       -157.2954546202171286
  @DF-RHF Final Energy:  -157.29548685212421
    Total Energy =                       -157.2954868521242133
  @DF-RHF Final Energy:  -157.29548420278337
    Total Energy =                       -157.2954842027832569
  @DF-RHF Final Energy:  -157.29548016015841
    Total Energy =                       -157.2954801601585189
	 Singles Energy            =      -0.0000000000000000 [Eh]
	 Same-Spin Energy          =      -0.1247076926758707 [Eh]
	 Opposite-Spin Energy      =      -0.4225825724837851 [Eh]
	 Correlation Energy        =      -0.5472902651596558 [Eh]
	 Total Energy              =    -157.8427704253180650 [Eh]
	 SCS Total Energy          =    -157.8441484780309167 [Eh]
  Charge       = 0
  Multiplicity = 1
  Basis Set: 6-31G(D)
  Basis Set:

    Orbital Energies (a.u.)
    -----------------------

    Doubly Occupied:

       1A    -11.216046     2A    -11.215456     3A    -11.209680
       4A    -11.209675     5A     -1.070316     6A     -0.974056
       7A     -0.874520     8A     -0.771688     9A     -0.626878
      10A     -0.618122    11A     -0.570460    12A     -0.535189
      13A     -0.529215    14A     -0.503417    15A     -0.460690
      16A     -0.458111    17A     -0.454560

  @DF-RHF Final Energy:  -157.29547834823276

   => Energetics <=

    Nuclear Repulsion Energy =            133.0050484465545253
    One-Electron Energy =                -474.0048941834685934
    Two-Electron Energy =                 183.7043673886810780
    DFT Exchange-Correlation Energy =       0.0000000000000000
    Empirical Dispersion Energy =           0.0000000000000000
    PCM Polarization Energy =               0.0000000000000000
    EFP Energy =                            0.0000000000000000
    Total Energy =                       -157.2954783482329617
  Basis Set:
    Molecular point group: c1
  Basis Set: 6-31G(D)
  Basis Set:
  Basis Set:
	 Reference Energy          =    -157.2954783482327628 [Eh]
	 Singles Energy            =      -0.0000000000000000 [Eh]
	 Same-Spin Energy          =      -0.1247074720411248 [Eh]
	 Opposite-Spin Energy      =      -0.4225830271510068 [Eh]
	 Correlation Energy        =      -0.5472904991921317 [Eh]
	 Total Energy              =    -157.8427688474249067 [Eh]

	 ================> DF-SCS-MP2 Energies <==================
	-----------------------------------------------------------
	 SCS Same-Spin Scale       =       0.3333333333333333 [-]
	 SCS Opposite-Spin Scale   =       1.2000000000000000 [-]
	 SCS Same-Spin Energy      =      -0.0415691573470416 [Eh]
	 SCS Opposite-Spin Energy  =      -0.5070996325812082 [Eh]
	 SCS Correlation Energy    =      -0.5486687899282497 [Eh]
	 SCS Total Energy          =    -157.8441471381610199 [Eh]
	-----------------------------------------------------------

  -Total Gradient:
     Atom            X                  Y                   Z
    ------   -----------------  -----------------  -----------------
       1        0.000010060023     0.000001581403    -0.000000512559
       2        0.000004989945    -0.000008423798     0.000001814447
       3       -0.000005510184     0.000002950442     0.000003368694
       4       -0.000597430996    -0.000298375033     0.002163590865
       5       -0.000006173882    -0.000011249831     0.000007763600
       6        0.000000256036    -0.000001330875    -0.000000906557
       7        0.000366451267     0.000238987676    -0.003836170404
       8       -0.000000505305     0.000001288173     0.000001113897
       9       -0.000014210475     0.000003005052    -0.000004776513
      10        0.001414530030     0.000488786333     0.003559323716
      11       -0.000003046390     0.000009634081    -0.000002200362
      12        0.000007809682     0.000005787842    -0.000002457000
      13       -0.000002667453    -0.000006129951    -0.000001722262
      14       -0.001174552300    -0.000426511514    -0.001888229561

  **** Optimization is complete! (in 10 steps) ****
    Final optimized geometry and variables:
    Molecular point group: c1

    Geometry (in Angstrom), charge = 0, multiplicity = 1:

    H           -1.802380061066     0.526782900328     0.252109048314
    H           -1.490133696551     2.083241023964    -0.515787757122
    H           -1.335610933996     0.592155786859    -1.451952438580
    C           -1.162665492272     1.040949258851    -0.468287995502
    H            0.905051890208     1.593496988879    -0.734777579690
    H            0.428128239753     1.359437909660     0.936637093893
    C            0.308725754138     0.952489126088    -0.075612488218
    H            0.979138282746    -0.784105849068    -1.155474195328
    H            1.899866212972    -0.446763392783     0.298597564809
    C            0.883041000933    -0.465259948171    -0.109713465436
    H            0.552964961353    -2.466382613473     0.661521966716
    H           -0.927726061518    -1.642930273911     0.172436445762
    H           -0.121144768918    -1.187720116390     1.678486128720
    C            0.047480500426    -1.496869710839     0.641705129330

*** Psi4 exiting successfully. Buy a developer a beer!
