                               Psi4 1.1 release

  ==> Input File <==

--------------------------------------------------------------------------

memory 5 Gb

molecule phepyrOH_anion {
  symmetry C1
  -1 1
  C      1.885   -1.036   -0.112
  C      2.878   -1.652   2.002
  C      0.807   -0.463   0.561
  C      1.800   -1.079   2.676
  C      4.086   -2.207   -1.480
  C      5.074   -2.818   0.626
  C      5.179   -2.788   -2.100
  C      6.123   -3.372   -0.089
  C      2.921   -1.631   0.608
  C      4.040   -2.226   -0.090
  C      0.764   -0.484   1.955
  N      6.203   -3.373   -1.439
  O      -0.227   0.042   2.574
  H      1.904   -1.011   -1.199
  H      3.678   -2.112   2.577
  H      0.011   -0.006   -0.025
  H      1.791   -1.108   3.764
  H      3.298   -1.753   -2.073
  H      5.072   -2.852   1.711
  H      5.263   -2.798   -3.182
  H      6.954   -3.847   0.422
  units Angstrom
}

dih_string = "1 9 10 5 0.001"
set optking fixed_dihedral = $dih_string

optimize('MP2/aug-cc-PVTZ')
--------------------------------------------------------------------------

    Molecular point group: c1
  Charge       = -1
  Multiplicity = 1
  Basis Set: AUG-CC-PVTZ
    Blend: AUG-CC-PVTZ
  Basis Set: (AUG-CC-PVTZ AUX)
    Blend: AUG-CC-PVTZ-JKFIT
  @DF-RHF Final Energy:  -550.71212731453500
    Total Energy =                       -550.7121273145349960
  Basis Set: (AUG-CC-PVTZ AUX)
    Blend: AUG-CC-PVTZ-RI
    Molecular point group: c1
  Basis Set: AUG-CC-PVTZ
    Blend: AUG-CC-PVTZ
  Basis Set: (AUG-CC-PVTZ AUX)
    Blend: AUG-CC-PVTZ-JKFIT
  Basis Set: (AUG-CC-PVTZ AUX)
    Blend: AUG-CC-PVTZ-JKFIT
	 Reference Energy          =    -550.7121273145349960 [Eh]
	 Singles Energy            =      -0.0000000000000001 [Eh]
	 Same-Spin Energy          =      -0.6144804591311906 [Eh]
	 Opposite-Spin Energy      =      -1.8407168050872640 [Eh]
	 Correlation Energy        =      -2.4551972642184547 [Eh]
	 Total Energy              =    -553.1673245787534370 [Eh]
	 SCS Total Energy          =    -553.1258143003501573 [Eh]
  @DF-RHF Final Energy:  -550.72127411494853
    Total Energy =                       -550.7212741149485282
  @DF-RHF Final Energy:  -550.72687944208838
    Total Energy =                       -550.7268794420883751
  @DF-RHF Final Energy:  -550.72949488593713
    Total Energy =                       -550.7294948859371289
  @DF-RHF Final Energy:  -550.72980535143040
    Total Energy =                       -550.7298053514304002
  Charge       = -1
  Multiplicity = 1
  Basis Set: AUG-CC-PVTZ
    Blend: AUG-CC-PVTZ
  Basis Set: (AUG-CC-PVTZ AUX)
    Blend: AUG-CC-PVTZ-JKFIT

    Orbital Energies (a.u.)
    -----------------------

    Doubly Occupied:

       1A    -20.326467     2A    -15.439156     3A    -11.159202
       4A    -11.159187     5A    -11.147632     6A    -11.138476
       7A    -11.111280     8A    -11.111258     9A    -11.104178
      10A    -11.104164    11A    -11.079791    12A    -11.066243
      13A    -11.066230    14A     -1.156941    15A     -1.138794
      16A     -1.017093    17A     -0.957987    18A     -0.915683
      19A     -0.872186    20A     -0.840769    21A     -0.740756
      22A     -0.735721    23A     -0.675342    24A     -0.654168
      25A     -0.598684    26A     -0.546994    27A     -0.539169
      28A     -0.511045    29A     -0.485108    30A     -0.483291
      31A     -0.475064    32A     -0.440806    33A     -0.432724
      34A     -0.426030    35A     -0.397047    36A     -0.386057
      37A     -0.379495    38A     -0.346684    39A     -0.326226
      40A     -0.304915    41A     -0.247787    42A     -0.236996
      43A     -0.231143    44A     -0.205647    45A     -0.109597

  @DF-RHF Final Energy:  -550.72979936557942

   => Energetics <=

    Nuclear Repulsion Energy =            681.9251221623060246
    One-Electron Energy =               -2113.6514176780046910
    Two-Electron Energy =                 880.9964961501192420
    DFT Exchange-Correlation Energy =       0.0000000000000000
    Empirical Dispersion Energy =           0.0000000000000000
    PCM Polarization Energy =               0.0000000000000000
    EFP Energy =                            0.0000000000000000
    Total Energy =                       -550.7297993655794244
  Basis Set: (AUG-CC-PVTZ AUX)
    Blend: AUG-CC-PVTZ-RI
    Molecular point group: c1
  Basis Set: AUG-CC-PVTZ
    Blend: AUG-CC-PVTZ
  Basis Set: (AUG-CC-PVTZ AUX)
    Blend: AUG-CC-PVTZ-JKFIT
  Basis Set: (AUG-CC-PVTZ AUX)
    Blend: AUG-CC-PVTZ-JKFIT
	 Reference Energy          =    -550.7297993655794244 [Eh]
	 Singles Energy            =      -0.0000000000000001 [Eh]
	 Same-Spin Energy          =      -0.6121047627034139 [Eh]
	 Opposite-Spin Energy      =      -1.8376984903586076 [Eh]
	 Correlation Energy        =      -2.4498032530620213 [Eh]
	 Total Energy              =    -553.1796026186414110 [Eh]

	 ================> DF-SCS-MP2 Energies <==================
	-----------------------------------------------------------
	 SCS Same-Spin Scale       =       0.3333333333333333 [-]
	 SCS Opposite-Spin Scale   =       1.2000000000000000 [-]
	 SCS Same-Spin Energy      =      -0.2040349209011380 [Eh]
	 SCS Opposite-Spin Energy  =      -2.2052381884303291 [Eh]
	 SCS Correlation Energy    =      -2.4092731093314672 [Eh]
	 SCS Total Energy          =    -553.1390724749109040 [Eh]
	-----------------------------------------------------------

  -Total Gradient:
     Atom            X                  Y                   Z
    ------   -----------------  -----------------  -----------------
       1        0.000027402865    -0.000000551288    -0.000007742292
       2        0.000006077652    -0.000008866739     0.000008052583
       3       -0.000004217176    -0.000031731497     0.000057412090
       4       -0.000039456531    -0.000002713657    -0.000040185651
       5       -0.000014261568     0.000001727712    -0.000026141500
       6        0.000037823349    -0.000022406002     0.000030542043
       7        0.000074123018    -0.000055988317     0.000014057625
       8        0.000062679641     0.000046479323    -0.000075291288
       9        0.000000690453     0.000006750728    -0.000008526886
      10        0.000042134768    -0.000057812421    -0.000045744100
      11       -0.000038790963     0.000103466862     0.000046918034
      12       -0.000102257974     0.000017792375     0.000048551303
      13       -0.000004560704    -0.000027548506    -0.000005886979
      14       -0.000018536369     0.000015714651    -0.000005091709
      15       -0.000024917625     0.000021567021     0.000022226159
      16        0.000013333811    -0.000009371922    -0.000041138006
      17        0.000035403588    -0.000021517235     0.000010099292
      18       -0.000017387009     0.000014584397     0.000043640114
      19       -0.000038499138     0.000012790649    -0.000023948544
      20        0.000014250423     0.000009525076     0.000011035187
      21       -0.000011034508    -0.000011891210    -0.000012837482

  **** Optimization is complete! (in 6 steps) ****
    Final optimized geometry and variables:
    Molecular point group: c1

    Geometry (in Angstrom), charge = -1, multiplicity = 1:

    C           -1.306340596819     0.737349771915    -0.532429809141
    C           -0.327807935455     0.130721188808     1.552467384827
    C           -2.373325157176     1.304380377737     0.123796728305
    C           -1.387894407666     0.693548218168     2.223318310854
    C            0.988695252227    -0.482506280973    -1.947502995708
    C            1.955250281878    -1.081327675013     0.110539686221
    C            2.076814359855    -1.062224465910    -2.571911741765
    C            3.003653398060    -1.636231443662    -0.598601795121
    C           -0.238230242801     0.126514113611     0.148851266334
    C            0.876597776250    -0.465778443469    -0.546893578659
    C           -2.491431404564     1.323583618566     1.554693734307
    N            3.099628802225    -1.646511369626    -1.934476087053
    O           -3.467380733590     1.841671558726     2.163499741791
    H           -1.304251694631     0.770990851675    -1.613216807408
    H            0.458059795763    -0.321465025153     2.141651075061
    H           -3.173639012238     1.763672793546    -0.441644140195
    H           -1.415124253061     0.673654832594     3.305003319386
    H            0.222706631862    -0.040283280934    -2.564251977525
    H            1.984469438772    -1.132093951486     1.187207348082
    H            2.131511186781    -1.057325935347    -3.653911986245
    H            3.819311400991    -2.103340339180    -0.059850125000

*** Psi4 exiting successfully. Buy a developer a beer!
