                               Psi4 1.1 release

  ==> Input File <==

--------------------------------------------------------------------------

memory 5000 mb

molecule butane {
  symmetry C1
  0 1
  H      1.790   2.398   -9.050
  H      2.025   0.865   -9.855
  H      1.577   0.906   -8.167
  C      2.142   1.395   -8.932
  H      4.169   2.051   -9.210
  H      3.731   1.788   -7.539
  C      3.631   1.416   -8.537
  H      3.665   -0.647   -7.940
  H      4.104   -0.384   -9.610
  C      4.203   -0.012   -8.612
  H      6.088   -0.983   -8.270
  H      5.791   0.381   -7.220
  H      6.230   0.644   -8.890
  C      5.691   0.009   -8.218
  units Angstrom
}

dih_string = "10 7 4 3 70"
set optking fixed_dihedral = $dih_string

optimize('MP2/aug-cc-pvtz')
--------------------------------------------------------------------------

    Molecular point group: c1
  Charge       = 0
  Multiplicity = 1
  Basis Set: AUG-CC-PVTZ
    Blend: AUG-CC-PVTZ
  Basis Set: (AUG-CC-PVTZ AUX)
    Blend: AUG-CC-PVTZ-JKFIT
  @DF-RHF Final Energy:  -157.35244668855319
    Total Energy =                       -157.3524466885531865
  Basis Set: (AUG-CC-PVTZ AUX)
    Blend: AUG-CC-PVTZ-RI
    Molecular point group: c1
  Basis Set: AUG-CC-PVTZ
    Blend: AUG-CC-PVTZ
  Basis Set: (AUG-CC-PVTZ AUX)
    Blend: AUG-CC-PVTZ-JKFIT
  Basis Set: (AUG-CC-PVTZ AUX)
    Blend: AUG-CC-PVTZ-JKFIT
	 Reference Energy          =    -157.3524466885531865 [Eh]
	 Singles Energy            =      -0.0000000000000001 [Eh]
	 Same-Spin Energy          =      -0.1653747551437539 [Eh]
	 Opposite-Spin Energy      =      -0.6387045351410950 [Eh]
	 Correlation Energy        =      -0.8040792902848491 [Eh]
	 Total Energy              =    -158.1565259788380331 [Eh]
	 SCS Total Energy          =    -158.1740170491037532 [Eh]
  @DF-RHF Final Energy:  -157.35508764484445
    Total Energy =                       -157.3550876448444455
  @DF-RHF Final Energy:  -157.35587472193995
    Total Energy =                       -157.3558747219399550
  @DF-RHF Final Energy:  -157.35610196507207
    Total Energy =                       -157.3561019650720709
  Charge       = 0
  Multiplicity = 1
  Basis Set: AUG-CC-PVTZ
    Blend: AUG-CC-PVTZ
  Basis Set: (AUG-CC-PVTZ AUX)
    Blend: AUG-CC-PVTZ-JKFIT

    Orbital Energies (a.u.)
    -----------------------

    Doubly Occupied:

       1A    -11.211375     2A    -11.210734     3A    -11.206030
       4A    -11.206021     5A     -1.074357     6A     -0.982199
       7A     -0.860999     8A     -0.787825     9A     -0.641169
      10A     -0.585456    11A     -0.577167    12A     -0.568424
      13A     -0.514230    14A     -0.494765    15A     -0.469930
      16A     -0.461237    17A     -0.456253

  @DF-RHF Final Energy:  -157.35609622928433

   => Energetics <=

    Nuclear Repulsion Energy =            131.5375528731471206
    One-Electron Energy =                -471.1709528527673001
    Two-Electron Energy =                 182.2773037503358751
    DFT Exchange-Correlation Energy =       0.0000000000000000
    Empirical Dispersion Energy =           0.0000000000000000
    PCM Polarization Energy =               0.0000000000000000
    EFP Energy =                            0.0000000000000000
    Total Energy =                       -157.3560962292843328
  Basis Set: (AUG-CC-PVTZ AUX)
    Blend: AUG-CC-PVTZ-RI
    Molecular point group: c1
  Basis Set: AUG-CC-PVTZ
    Blend: AUG-CC-PVTZ
  Basis Set: (AUG-CC-PVTZ AUX)
    Blend: AUG-CC-PVTZ-JKFIT
  Basis Set: (AUG-CC-PVTZ AUX)
    Blend: AUG-CC-PVTZ-JKFIT
	 Reference Energy          =    -157.3560962292843328 [Eh]
	 Singles Energy            =      -0.0000000000000000 [Eh]
	 Same-Spin Energy          =      -0.1654512387193454 [Eh]
	 Opposite-Spin Energy      =      -0.6391916744156304 [Eh]
	 Correlation Energy        =      -0.8046429131349757 [Eh]
	 Total Energy              =    -158.1607391424193167 [Eh]

	 ================> DF-SCS-MP2 Energies <==================
	-----------------------------------------------------------
	 SCS Same-Spin Scale       =       0.3333333333333333 [-]
	 SCS Opposite-Spin Scale   =       1.2000000000000000 [-]
	 SCS Same-Spin Energy      =      -0.0551504129064485 [Eh]
	 SCS Opposite-Spin Energy  =      -0.7670300092987564 [Eh]
	 SCS Correlation Energy    =      -0.8221804222052049 [Eh]
	 SCS Total Energy          =    -158.1782766514895400 [Eh]
	-----------------------------------------------------------

  -Total Gradient:
     Atom            X                  Y                   Z
    ------   -----------------  -----------------  -----------------
       1       -0.000008443795     0.000035036754    -0.000004433417
       2       -0.000019130860    -0.000031877574    -0.000057101583
       3       -0.000216213116     0.001368367464     0.000769072681
       4        0.000468601722    -0.001691921174    -0.001304211634
       5       -0.000007358181    -0.000000548416    -0.000009100366
       6       -0.000007401394    -0.000013398889     0.000053853132
       7       -0.000429367046     0.000147307469     0.001652150152
       8       -0.000021018475    -0.000009007554     0.000041801978
       9        0.000012593677     0.000016058962    -0.000006206551
      10        0.000271662901     0.000144422940    -0.001115638941
      11        0.000018194939    -0.000053179900    -0.000003787620
      12        0.000007738573     0.000017248402     0.000052914407
      13        0.000042314005     0.000031041304    -0.000030621376
      14       -0.000112172943     0.000040450210    -0.000038690861

  **** Optimization is complete! (in 5 steps) ****
    Final optimized geometry and variables:
    Molecular point group: c1

    Geometry (in Angstrom), charge = 0, multiplicity = 1:

    H           -2.160325486629     1.703008946385    -0.467704388332
    H           -1.939961624758     0.162986906983    -1.290418564671
    H           -2.371931600609     0.204518018572     0.418582928573
    C           -1.777905717914     0.691120530843    -0.352628596162
    H            0.243589197507     1.346315122936    -0.658723315384
    H           -0.178027867429     1.107463698648     1.020764620656
    C           -0.306655749270     0.692574932974     0.020007731215
    H           -0.251086395524    -1.359960400620     0.621619073556
    H            0.203246873091    -1.086821141917    -1.044536204970
    C            0.310656469626    -0.691634886679    -0.033334359536
    H            2.203720627787    -1.691060805012     0.314012813138
    H            1.896186490515    -0.327350942782     1.383383019680
    H            2.352115762743    -0.044839025685    -0.290828707497
    C            1.774112779443    -0.693258240922     0.365438607094

*** Psi4 exiting successfully. Buy a developer a beer!
