                               Psi4 1.1 release

  ==> Input File <==

--------------------------------------------------------------------------

memory 5 Gb

molecule phepyrFOH_neutral {
  symmetry C1
  0 1
  C      1.885   -1.036   -0.112
  C      0.807   -0.463   0.561
  C      3.946   -2.486   -1.457
  C      5.208   -2.535   0.590
  C      1.800   -1.079   2.676
  C      5.043   -3.054   -2.084
  C      6.248   -3.101   -0.129
  C      2.921   -1.631   0.608
  C      4.038   -2.225   -0.095
  C      0.764   -0.484   1.955
  C      2.878   -1.652   2.002
  N      6.196   -3.369   -1.453
  O      -0.289   0.076   2.612
  F      3.866   -2.220   2.709
  H      1.904   -1.012   -1.199
  H      0.002   -0.002   -0.006
  H      3.050   -2.257   -2.026
  H      5.316   -2.346   1.653
  H      1.772   -1.099   3.762
  H      5.023   -3.276   -3.146
  H      7.182   -3.362   0.359
  H      -0.175   -0.018   3.571
  units Angstrom
}

dih_string = "1 8 9 3 345"
set optking fixed_dihedral = $dih_string

optimize('MP2/aug-cc-PVTZ')
--------------------------------------------------------------------------

    Molecular point group: c1
  Charge       = 0
  Multiplicity = 1
  Basis Set: AUG-CC-PVTZ
    Blend: AUG-CC-PVTZ
  Basis Set: (AUG-CC-PVTZ AUX)
    Blend: AUG-CC-PVTZ-JKFIT
  @DF-RHF Final Energy:  -650.16070631504499
    Total Energy =                       -650.1607063150449903
  Basis Set: (AUG-CC-PVTZ AUX)
    Blend: AUG-CC-PVTZ-RI
    Molecular point group: c1
  Basis Set: AUG-CC-PVTZ
    Blend: AUG-CC-PVTZ
  Basis Set: (AUG-CC-PVTZ AUX)
    Blend: AUG-CC-PVTZ-JKFIT
  Basis Set: (AUG-CC-PVTZ AUX)
    Blend: AUG-CC-PVTZ-JKFIT
	 Reference Energy          =    -650.1607063150449903 [Eh]
	 Singles Energy            =      -0.0000000000000001 [Eh]
	 Same-Spin Energy          =      -0.6795530438420472 [Eh]
	 Opposite-Spin Energy      =      -2.0219914272325457 [Eh]
	 Correlation Energy        =      -2.7015444710745928 [Eh]
	 Total Energy              =    -652.8622507861196027 [Eh]
	 SCS Total Energy          =    -652.8136137090046986 [Eh]
  @DF-RHF Final Energy:  -650.16947120722352
    Total Energy =                       -650.1694712072235234
    Molecular point group: c1
  Charge       = 0
  Multiplicity = 1
  Basis Set: AUG-CC-PVTZ
    Blend: AUG-CC-PVTZ
  Basis Set: (AUG-CC-PVTZ AUX)
    Blend: AUG-CC-PVTZ-JKFIT

    Orbital Energies (a.u.)
    -----------------------

    Doubly Occupied:

       1A    -26.330194     2A    -20.613128     3A    -15.557844
       4A    -11.350341     5A    -11.329784     6A    -11.269456
       7A    -11.269284     8A    -11.267192     9A    -11.265344
      10A    -11.256567    11A    -11.253851    12A    -11.244316
      13A    -11.235736    14A    -11.228801    15A     -1.654324
      16A     -1.430889    17A     -1.254254    18A     -1.187028
      19A     -1.111254    20A     -1.047103    21A     -1.031585
      22A     -1.024749    23A     -0.898129    24A     -0.881325
      25A     -0.853935    26A     -0.829944    27A     -0.776075
      28A     -0.755802    29A     -0.725283    30A     -0.718975
      31A     -0.705028    32A     -0.676769    33A     -0.654876
      34A     -0.639449    35A     -0.632016    36A     -0.615124
      37A     -0.613505    38A     -0.592035    39A     -0.581288
      40A     -0.548894    41A     -0.542293    42A     -0.541508
      43A     -0.509817    44A     -0.502769    45A     -0.414705
      46A     -0.406591    47A     -0.363745    48A     -0.345153
      49A     -0.313329

  @DF-RHF Final Energy:  -650.17422162710488

   => Energetics <=

    Nuclear Repulsion Energy =            816.6620649315836999
    One-Electron Energy =               -2507.9697950734398546
    Two-Electron Energy =                1041.1335085147511563
    DFT Exchange-Correlation Energy =       0.0000000000000000
    Empirical Dispersion Energy =           0.0000000000000000
    PCM Polarization Energy =               0.0000000000000000
    EFP Energy =                            0.0000000000000000
    Total Energy =                       -650.1742216271049983
  Basis Set: (AUG-CC-PVTZ AUX)
    Blend: AUG-CC-PVTZ-RI
    Molecular point group: c1

    Geometry (in Angstrom), charge = 0, multiplicity = 1:

       Center              X                  Y                   Z               Mass
    ------------   -----------------  -----------------  -----------------  -----------------
           C         -1.336204617098     0.772882381101    -0.764602520196    12.000000000000
           C         -2.409509699473     1.341860291056    -0.099648528746    12.000000000000
           C          0.778545017493    -0.715713946453    -2.138305909073    12.000000000000
           C          2.041896539777    -0.755263228025    -0.117642004521    12.000000000000
           C         -1.425049516251     0.715009680076     1.996423333944    12.000000000000
           C          1.866837719453    -1.285344163241    -2.774983235295    12.000000000000
           C          3.072983558626    -1.322546909824    -0.852062639351    12.000000000000
           C         -0.284545172865     0.166657654269    -0.075836738875    12.000000000000
           C          0.850080018188    -0.438853090777    -0.774582329237    12.000000000000
           C         -2.455930759169     1.314162059957     1.285986473927    12.000000000000
           C         -0.365209275599     0.156272474483     1.309932900740    12.000000000000
           N          3.012612859697    -1.594894149472    -2.159632918027    14.003074004780
           O         -3.522715195228     1.880540732176     1.909494905260    15.994914619560
           F          0.612941698098    -0.424928972851     2.017387891023    18.998403224000
           H         -1.322233391847     0.809031468854    -1.842489973720     1.007825032070
           H         -3.210885959273     1.806525390903    -0.654766958056     1.007825032070
           H         -0.110926530060    -0.498338097986    -2.708758197218     1.007825032070
           H          2.193058726962    -0.570440985578     0.924527728360     1.007825032070
           H         -1.441440202672     0.678628564355     3.076908668053     1.007825032070
           H          1.828520020534    -1.508242548043    -3.833247037022     1.007825032070
           H          4.007748002448    -1.575162302185    -0.368894907652     1.007825032070
           H         -3.424208079249     1.788542861687     2.862625647922     1.007825032070

  Basis Set: AUG-CC-PVTZ
    Blend: AUG-CC-PVTZ
  Basis Set: (AUG-CC-PVTZ AUX)
    Blend: AUG-CC-PVTZ-JKFIT
  Basis Set: (AUG-CC-PVTZ AUX)
    Blend: AUG-CC-PVTZ-JKFIT
	 Reference Energy          =    -650.1742216271048846 [Eh]
	 Singles Energy            =      -0.0000000000000006 [Eh]
	 Same-Spin Energy          =      -0.6778728749343905 [Eh]
	 Opposite-Spin Energy      =      -2.0184600528416485 [Eh]
	 Correlation Energy        =      -2.6963329277760395 [Eh]
	 Total Energy              =    -652.8705545548808686 [Eh]

	 ================> DF-SCS-MP2 Energies <==================
	-----------------------------------------------------------
	 SCS Same-Spin Scale       =       0.3333333333333333 [-]
	 SCS Opposite-Spin Scale   =       1.2000000000000000 [-]
	 SCS Same-Spin Energy      =      -0.2259576249781302 [Eh]
	 SCS Opposite-Spin Energy  =      -2.4221520634099782 [Eh]
	 SCS Correlation Energy    =      -2.6481096883881090 [Eh]
	 SCS Total Energy          =    -652.8223313154929883 [Eh]
	-----------------------------------------------------------

  -Total Gradient:
     Atom            X                  Y                   Z
    ------   -----------------  -----------------  -----------------
       1        0.004166709313    -0.001544578105    -0.006228360547
       2        0.000317547845    -0.000098108658     0.004334879539
       3       -0.003406217989     0.001064269622    -0.000224486905
       4       -0.006473651779     0.003613041149     0.013254537573
       5       -0.001091768976     0.000852488108    -0.001849305185
       6       -0.002371140436     0.000762199859     0.001682384076
       7       -0.001886840487     0.000786907776     0.002942785717
       8       -0.006550937293     0.003402952699     0.004129310905
       9        0.002897277084    -0.002180938767    -0.003980692271
      10       -0.001923723790     0.001460052557    -0.003527552211
      11        0.008939007584    -0.006273762056     0.003818115372
      12        0.002181304134    -0.000794255145    -0.002244246581
      13        0.001134724024    -0.000820401861     0.001869586639
      14        0.007120910839     0.000402640202    -0.012846404759
      15       -0.000735997594    -0.000766060657    -0.001238133679
      16       -0.000390645153     0.000109698250    -0.001736877537
      17       -0.000640718141     0.001382035610    -0.000459872122
      18       -0.001976049790    -0.000922353849     0.001705004814
      19       -0.000965089243     0.000502095112     0.001051129083
      20        0.001138393526    -0.000504434915    -0.000544408876
      21        0.000903344068    -0.000612199332    -0.000857660869
      22       -0.000386437761     0.000178712405     0.000950267838

*** Psi4 exiting successfully. Buy a developer a beer!
