                               Psi4 1.1 release

  ==> Input File <==

--------------------------------------------------------------------------

memory 5 Gb

molecule phepyrOH_zwitterion {
  symmetry C1
  0 1
  C      1.885   -1.036   -0.112
  C      2.878   -1.652   2.002
  C      0.807   -0.463   0.561
  C      1.800   -1.079   2.676
  C      4.517   -3.475   0.296
  C      4.641   -1.550   -1.148
  C      5.592   -4.021   -0.392
  C      5.712   -2.145   -1.799
  C      2.921   -1.631   0.608
  C      4.040   -2.226   -0.090
  C      0.764   -0.484   1.955
  N      6.152   -3.349   -1.407
  O      -0.227   0.042   2.574
  H      1.904   -1.011   -1.199
  H      3.678   -2.112   2.577
  H      0.011   -0.006   -0.025
  H      1.791   -1.108   3.764
  H      4.068   -4.025   1.117
  H      4.289   -0.574   -1.470
  H      6.027   -4.984   -0.163
  H      6.239   -1.695   -2.629
  H      6.941   -3.767   -1.898
  units Angstrom
}

dih_string = "1 9 10 5 225"
set optking fixed_dihedral = $dih_string

optimize('MP2/aug-cc-PVTZ')
--------------------------------------------------------------------------

    Molecular point group: c1
  Charge       = 0
  Multiplicity = 1
  Basis Set: AUG-CC-PVTZ
    Blend: AUG-CC-PVTZ
  Basis Set: (AUG-CC-PVTZ AUX)
    Blend: AUG-CC-PVTZ-JKFIT
  @DF-RHF Final Energy:  -551.20842458958896
    Total Energy =                       -551.2084245895889580
  Basis Set: (AUG-CC-PVTZ AUX)
    Blend: AUG-CC-PVTZ-RI
    Molecular point group: c1
  Basis Set: AUG-CC-PVTZ
    Blend: AUG-CC-PVTZ
  Basis Set: (AUG-CC-PVTZ AUX)
    Blend: AUG-CC-PVTZ-JKFIT
  Basis Set: (AUG-CC-PVTZ AUX)
    Blend: AUG-CC-PVTZ-JKFIT
	 Reference Energy          =    -551.2084245895889580 [Eh]
	 Singles Energy            =      -0.0000000000000004 [Eh]
	 Same-Spin Energy          =      -0.6066323778324753 [Eh]
	 Opposite-Spin Energy      =      -1.8386303810871270 [Eh]
	 Correlation Energy        =      -2.4452627589196028 [Eh]
	 Total Energy              =    -553.6536873485085835 [Eh]
	 SCS Total Energy          =    -553.6169918395042941 [Eh]
  @DF-RHF Final Energy:  -551.21831528942596
    Total Energy =                       -551.2183152894259592
  @DF-RHF Final Energy:  -551.22597574805582
    Total Energy =                       -551.2259757480558164
  @DF-RHF Final Energy:  -551.23093773008895
    Total Energy =                       -551.2309377300889537
  @DF-RHF Final Energy:  -551.23366556752853
    Total Energy =                       -551.2336655675285328
  @DF-RHF Final Energy:  -551.23532978776575
    Total Energy =                       -551.2353297877657496
  @DF-RHF Final Energy:  -551.23656832983670
    Total Energy =                       -551.2365683298367003
  @DF-RHF Final Energy:  -551.23749147985291
    Total Energy =                       -551.2374914798529062
  @DF-RHF Final Energy:  -551.23813779676186
    Total Energy =                       -551.2381377967618619
  @DF-RHF Final Energy:  -551.23851551306143
    Total Energy =                       -551.2385155130614294
  @DF-RHF Final Energy:  -551.23848665165849
    Total Energy =                       -551.2384866516584907
  @DF-RHF Final Energy:  -551.23839961529006
    Total Energy =                       -551.2383996152900636
  @DF-RHF Final Energy:  -551.23829040610553
    Total Energy =                       -551.2382904061055342
  @DF-RHF Final Energy:  -551.23822908359944
    Total Energy =                       -551.2382290835994354
  @DF-RHF Final Energy:  -551.23818098249785
    Total Energy =                       -551.2381809824978518
    Molecular point group: c1
  Charge       = 0
  Multiplicity = 1
  Basis Set: AUG-CC-PVTZ
    Blend: AUG-CC-PVTZ
  Basis Set: (AUG-CC-PVTZ AUX)
    Blend: AUG-CC-PVTZ-JKFIT

    Orbital Energies (a.u.)
    -----------------------

    Doubly Occupied:

       1A    -20.471282     2A    -15.669602     3A    -11.335974
       4A    -11.335947     5A    -11.298056     6A    -11.274752
       7A    -11.267932     8A    -11.266676     9A    -11.235540
      10A    -11.233078    11A    -11.219573    12A    -11.198745
      13A    -11.197793    14A     -1.351102    15A     -1.306019
      16A     -1.168371    17A     -1.106058    18A     -1.094390
      19A     -1.007855    20A     -0.995524    21A     -0.911123
      22A     -0.895120    23A     -0.817185    24A     -0.811387
      25A     -0.791809    26A     -0.717988    27A     -0.714295
      28A     -0.680273    29A     -0.660269    30A     -0.632511
      31A     -0.623692    32A     -0.618515    33A     -0.611738
      34A     -0.578926    35A     -0.554396    36A     -0.551946
      37A     -0.519829    38A     -0.516785    39A     -0.485286
      40A     -0.467691    41A     -0.412052    42A     -0.398338
      43A     -0.366156    44A     -0.341317    45A     -0.242794

  @DF-RHF Final Energy:  -551.23796871175716

   => Energetics <=

    Nuclear Repulsion Energy =            698.8189351801315752
    One-Electron Energy =               -2134.2024286285486596
    Two-Electron Energy =                 884.1455247366599224
    DFT Exchange-Correlation Energy =       0.0000000000000000
    Empirical Dispersion Energy =           0.0000000000000000
    PCM Polarization Energy =               0.0000000000000000
    EFP Energy =                            0.0000000000000000
    Total Energy =                       -551.2379687117571621
  Basis Set: (AUG-CC-PVTZ AUX)
    Blend: AUG-CC-PVTZ-RI
    Molecular point group: c1

    Geometry (in Angstrom), charge = 0, multiplicity = 1:

       Center              X                  Y                   Z               Mass
    ------------   -----------------  -----------------  -----------------  -----------------
           C         -1.178186105298     0.921782044518    -0.523755251377    12.000000000000
           C         -0.343229471208     0.086374576956     1.599569846830    12.000000000000
           C         -2.314987262688     1.349264498263     0.086154805787    12.000000000000
           C         -1.448924001721     0.557948809192     2.233148042399    12.000000000000
           C          1.454702446003    -1.590720743537    -0.062762687678    12.000000000000
           C          1.465458722909     0.188439336919    -1.675028414557    12.000000000000
           C          2.425127465080    -2.217265139501    -0.777412044174    12.000000000000
           C          2.440632032279    -0.462207882475    -2.360344699655    12.000000000000
           C         -0.132624740426     0.292111234170     0.206669601774    12.000000000000
           C          0.940538390936    -0.319145585965    -0.449423692474    12.000000000000
           C         -2.518957600271     1.225270458024     1.516646501849    12.000000000000
           N          2.924682238223    -1.651071428438    -1.909757471704    14.003074004780
           O         -3.540676390058     1.643068486515     2.083670790854    15.994914619560
           H         -1.086181105796     1.010218122513    -1.598333033107     1.007825032070
           H          0.432369246692    -0.400451691773     2.176365226570     1.007825032070
           H         -3.124354717786     1.777738604548    -0.486307209201     1.007825032070
           H         -1.570427732891     0.448608591372     3.301191019455     1.007825032070
           H          1.053703764854    -2.093477477467     0.802518180937     1.007825032070
           H          1.119526652705     1.135375824496    -2.057364021540     1.007825032070
           H          2.811811918248    -3.188292596359    -0.515582079648     1.007825032070
           H          2.878884483053    -0.078046742989    -3.266966255050     1.007825032070
           H          3.640176659301    -2.127048738676    -2.430837643689     1.007825032070

  Basis Set: AUG-CC-PVTZ
    Blend: AUG-CC-PVTZ
  Basis Set: (AUG-CC-PVTZ AUX)
    Blend: AUG-CC-PVTZ-JKFIT
  Basis Set: (AUG-CC-PVTZ AUX)
    Blend: AUG-CC-PVTZ-JKFIT
	 Reference Energy          =    -551.2379687117571621 [Eh]
	 Singles Energy            =      -0.0000000000000001 [Eh]
	 Same-Spin Energy          =      -0.6006537316040080 [Eh]
	 Opposite-Spin Energy      =      -1.8355750558211206 [Eh]
	 Correlation Energy        =      -2.4362287874251285 [Eh]
	 Total Energy              =    -553.6741974991822417 [Eh]

	 ================> DF-SCS-MP2 Energies <==================
	-----------------------------------------------------------
	 SCS Same-Spin Scale       =       0.3333333333333333 [-]
	 SCS Opposite-Spin Scale   =       1.2000000000000000 [-]
	 SCS Same-Spin Energy      =      -0.2002179105346693 [Eh]
	 SCS Opposite-Spin Energy  =      -2.2026900669853444 [Eh]
	 SCS Correlation Energy    =      -2.4029079775200137 [Eh]
	 SCS Total Energy          =    -553.6408766892772064 [Eh]
	-----------------------------------------------------------

  -Total Gradient:
     Atom            X                  Y                   Z
    ------   -----------------  -----------------  -----------------
       1       -0.005797749235    -0.009894128578    -0.000204226870
       2        0.000643249135     0.000929129826     0.000650268156
       3        0.000066215331     0.000044797996    -0.000382983690
       4        0.000108879505     0.000107279901    -0.000013274585
       5       -0.007371947453    -0.005340018068    -0.007428088334
       6        0.000917681650     0.000603217535     0.000134555141
       7       -0.000118784015    -0.000148323598     0.000201841905
       8        0.000025924568    -0.000016304286     0.000090467516
       9        0.004194189537     0.010846539992    -0.004359197977
      10        0.007709586702     0.002875713480     0.011190760649
      11       -0.000161878051     0.000042398645     0.000273368864
      12       -0.000006208419     0.000053260083    -0.000202500729
      13       -0.000187432171    -0.000032282501     0.000129280942
      14        0.000019708526    -0.000083164078    -0.000108618948
      15       -0.000125773514    -0.000173631058    -0.000077458590
      16       -0.000006980277     0.000160918445     0.000099125350
      17       -0.000124411798     0.000036196901     0.000298853844
      18       -0.000035669915    -0.000024522976     0.000050729159
      19       -0.000062383431    -0.000052870313    -0.000046284708
      20        0.000088927095     0.000028548550     0.000033451480
      21        0.000112430853     0.000071944531    -0.000217611829
      22        0.000112425365    -0.000034700425    -0.000112456756

*** Psi4 exiting successfully. Buy a developer a beer!
