                              Psi4 1.0.0 Driver

  ==> Input File <==

--------------------------------------------------------------------------

memory 1000 mb

molecule butane {
  symmetry C1
  0 1
  H      1.604   0.760   -8.260
  H      1.745   2.388   -8.880
  H      2.043   1.024   -9.930
  C      2.142   1.395   -8.932
  H      4.169   2.051   -9.210
  H      3.731   1.788   -7.539
  C      3.631   1.416   -8.537
  H      5.237   0.003   -8.337
  H      3.665   -0.647   -7.940
  C      4.203   -0.012   -8.612
  H      4.459   -1.539   -10.100
  H      4.599   0.087   -10.721
  H      3.027   -0.564   -10.324
  C      4.061   -0.548   -10.048
  units Angstrom
}

dih_string = "4 7 10 14 60"
set optking fixed_dihedral = $dih_string

optimize('B3LYP/cc-PVDZ')
--------------------------------------------------------------------------

    Molecular point group: c1
  Charge       = 0
  Multiplicity = 1
  Basis Set: CC-PVDZ
   => B3LYP Composite Functional <=
  Basis Set:
  @DF-RKS Final Energy:  -158.44605920360397
    Total Energy =                       -158.4460592036039657
    Molecular point group: c1
  Basis Set: CC-PVDZ
  Basis Set:
   => B3LYP Composite Functional <=
  Basis Set: CC-PVDZ
   => B3LYP Composite Functional <=
  Basis Set:
  @DF-RKS Final Energy:  -158.45262881189450
    Total Energy =                       -158.4526288118944990
  Basis Set: CC-PVDZ
  Basis Set:
   => B3LYP Composite Functional <=
  Basis Set: CC-PVDZ
   => B3LYP Composite Functional <=
  Basis Set:
  @DF-RKS Final Energy:  -158.45592211788281
    Total Energy =                       -158.4559221178828068
  Basis Set: CC-PVDZ
  Basis Set:
  @DF-RKS Final Energy:  -158.45704267552003
    Total Energy =                       -158.4570426755200288
   => B3LYP Composite Functional <=
  Basis Set:
  @DF-RKS Final Energy:  -158.45733646336458
    Total Energy =                       -158.4573364633645838
  Basis Set: CC-PVDZ
  Basis Set:
   => B3LYP Composite Functional <=
  Basis Set: CC-PVDZ
   => B3LYP Composite Functional <=
  Basis Set:
  @DF-RKS Final Energy:  -158.45737902970419
    Total Energy =                       -158.4573790297041853
  Basis Set: CC-PVDZ
  Basis Set:
   => B3LYP Composite Functional <=
  Charge       = 0
  Multiplicity = 1
  Basis Set: CC-PVDZ
   => B3LYP Composite Functional <=
  Basis Set:

    Orbital Energies (a.u.)
    -----------------------

    Doubly Occupied:

       1A    -10.180518     2A    -10.180347     3A    -10.175398
       4A    -10.175389     5A     -0.790123     6A     -0.716521
       7A     -0.637771     8A     -0.561572     9A     -0.452789
      10A     -0.449270    11A     -0.412340    12A     -0.382057
      13A     -0.378401    14A     -0.356201    15A     -0.321668
      16A     -0.321197    17A     -0.319020

  @DF-RKS Final Energy:  -158.45738297133275

   => Energetics <=

    Nuclear Repulsion Energy =            131.7316721854232640
    One-Electron Energy =                -471.9586930133162923
    Two-Electron Energy =                 202.3534898228550674
    DFT Exchange-Correlation Energy =     -20.5838519662947483
    Empirical Dispersion Energy =           0.0000000000000000
    PCM Polarization Energy =               0.0000000000000000
    EFP Energy =                            0.0000000000000000
    Total Energy =                       -158.4573829713327484
    Molecular point group: c1
  Basis Set: CC-PVDZ
  Basis Set:
   => B3LYP Composite Functional <=

  -Total Gradient:
     Atom            X                  Y                   Z
    ------   -----------------  -----------------  -----------------
       1        0.000010742963     0.000010001556    -0.000007804283
       2        0.000014760405     0.000010678306    -0.000000513081
       3        0.000003829673     0.000013701878     0.000002354038
       4        0.000179202073     0.000126964746    -0.000725961969
       5       -0.000050015730    -0.000035355850     0.000023827594
       6       -0.000008832263    -0.000033480164    -0.000044463275
       7       -0.000539000106    -0.000228250160     0.001137170265
       8       -0.000049500538     0.000013204851    -0.000021597197
       9        0.000021220271     0.000026114550    -0.000058109358
      10        0.001092828994     0.000416561232    -0.000514104634
      11       -0.000001010883    -0.000002251451     0.000017357469
      12       -0.000006003715    -0.000008114356     0.000012339062
      13        0.000004234799    -0.000010335202     0.000007382143
      14       -0.000675424549    -0.000300455194     0.000168788738

  **** Optimization is complete! (in 7 steps) ****
    Final optimized geometry and variables:
    Molecular point group: c1

    Geometry (in Angstrom), charge = 0, multiplicity = 1:

    H           -1.989158872147     0.245233200492     0.776950916037
    H           -1.773802711673     1.949522528081     0.312849918065
    H           -1.576787376379     0.669256956427    -0.900838821499
    C           -1.387596693656     0.929570202042     0.153211535728
    H            0.669493934297     1.531550750421    -0.143018918657
    H            0.248611337969     1.208298039049     1.539668305121
    C            0.099991145064     0.841835416972     0.508346144945
    H            1.761828964379    -0.521252819193     0.718770565681
    H            0.198394029692    -1.234960852683     1.117961732309
    C            0.706102482047    -0.566362956952     0.397183930034
    H            1.138057063368    -2.166774674075    -1.027023309711
    H            1.120992761247    -0.541915417064    -1.752208102531
    H           -0.407509589926    -1.347366037347    -1.328237421361
    C            0.632724132655    -1.187539401418    -1.001201088814

*** Psi4 exiting successfully. Buy a developer a beer!
