                               Psi4 1.1 release

  ==> Input File <==

--------------------------------------------------------------------------

molecule phepyr {
  symmetry C1
  0 1
  C      1.885   -1.036   -0.112
  C      0.807   -0.463   0.561
  C      2.921   -1.631   0.608
  C      0.764   -0.484   1.955
  C      2.878   -1.652   2.002
  C      1.445   -2.278   4.793
  C      2.023   0.056   4.846
  C      1.417   -2.247   6.178
  C      1.969   -0.017   6.228
  C      1.800   -1.079   2.676
  C      1.755   -1.101   4.122
  N      1.671   -1.143   6.915
  H      1.917   -1.021   -1.198
  H      -0.001   -0.002   0.000
  H      3.760   -2.079   0.084
  H      -0.084   -0.033   2.466
  H      3.693   -2.120   2.550
  H      1.231   -3.201   4.263
  H      2.268   0.993   4.356
  H      1.182   -3.140   6.748
  H      2.168   0.857   6.839
  units Angstrom
}

dih_string = "4 10 11 6 105"
set optking fixed_dihedral = $dih_string

optimize('MP2/aug-cc-PVTZ')
--------------------------------------------------------------------------

    Molecular point group: c1
  Charge       = 0
  Multiplicity = 1
  Basis Set: AUG-CC-PVTZ
    Blend: AUG-CC-PVTZ
  Basis Set: (AUG-CC-PVTZ AUX)
    Blend: AUG-CC-PVTZ-JKFIT
  @DF-RHF Final Energy:  -476.39530855748319
    Total Energy =                       -476.3953085574831903
  Basis Set: (AUG-CC-PVTZ AUX)
    Blend: AUG-CC-PVTZ-RI
    Molecular point group: c1
  Basis Set: AUG-CC-PVTZ
    Blend: AUG-CC-PVTZ
  Basis Set: (AUG-CC-PVTZ AUX)
    Blend: AUG-CC-PVTZ-JKFIT
  Basis Set: (AUG-CC-PVTZ AUX)
    Blend: AUG-CC-PVTZ-JKFIT
	 Reference Energy          =    -476.3953085574831903 [Eh]
	 Singles Energy            =      -0.0000000000000003 [Eh]
	 Same-Spin Energy          =      -0.5342626825166903 [Eh]
	 Opposite-Spin Energy      =      -1.6423570625408319 [Eh]
	 Correlation Energy        =      -2.1766197450575224 [Eh]
	 Total Energy              =    -478.5719283025406980 [Eh]
	 SCS Total Energy          =    -478.5442245933710979 [Eh]
  @DF-RHF Final Energy:  -476.40002681002966
    Total Energy =                       -476.4000268100296580
  @DF-RHF Final Energy:  -476.40046188175330
    Total Energy =                       -476.4004618817532446
  @DF-RHF Final Energy:  -476.40044054600048
    Total Energy =                       -476.4004405460004818
  @DF-RHF Final Energy:  -476.40042019091339
    Total Energy =                       -476.4004201909134508
  @DF-RHF Final Energy:  -476.40043343965579
    Total Energy =                       -476.4004334396557852
  @DF-RHF Final Energy:  -476.40043082617291
    Total Energy =                       -476.4004308261729648
  @DF-RHF Final Energy:  -476.40040682077876
    Total Energy =                       -476.4004068207788123
  @DF-RHF Final Energy:  -476.40041488316456
    Total Energy =                       -476.4004148831645580
  @DF-RHF Final Energy:  -476.40042296918023
    Total Energy =                       -476.4004229691802266
  @DF-RHF Final Energy:  -476.40019906445286
    Total Energy =                       -476.4001990644528632
  @DF-RHF Final Energy:  -476.40033192048804
    Total Energy =                       -476.4003319204880427
  @DF-RHF Final Energy:  -476.40041806012391
    Total Energy =                       -476.4004180601239113
  Charge       = 0
  Multiplicity = 1
  Basis Set: AUG-CC-PVTZ
    Blend: AUG-CC-PVTZ
  Basis Set: (AUG-CC-PVTZ AUX)
    Blend: AUG-CC-PVTZ-JKFIT

    Orbital Energies (a.u.)
    -----------------------

    Doubly Occupied:

       1A    -15.563251     2A    -11.272859     3A    -11.272842
       4A    -11.264250     5A    -11.251796     6A    -11.243098
       7A    -11.242966     8A    -11.241891     9A    -11.241681
      10A    -11.240290    11A    -11.237707    12A    -11.237622
      13A     -1.259731    14A     -1.174234    15A     -1.107568
      16A     -1.035103    17A     -1.026335    18A     -1.018740
      19A     -0.879612    20A     -0.860664    21A     -0.837376
      22A     -0.807871    23A     -0.731295    24A     -0.688686
      25A     -0.670383    26A     -0.654802    27A     -0.638103
      28A     -0.634163    29A     -0.598064    30A     -0.596763
      31A     -0.582628    32A     -0.542212    33A     -0.527179
      34A     -0.508165    35A     -0.507289    36A     -0.502644
      37A     -0.417936    38A     -0.383872    39A     -0.352282
      40A     -0.344139    41A     -0.339999

  @DF-RHF Final Energy:  -476.40042306738968

   => Energetics <=

    Nuclear Repulsion Energy =            605.5554285215242771
    One-Electron Energy =               -1844.8355249369565172
    Two-Electron Energy =                 762.8796733480423882
    DFT Exchange-Correlation Energy =       0.0000000000000000
    Empirical Dispersion Energy =           0.0000000000000000
    PCM Polarization Energy =               0.0000000000000000
    EFP Energy =                            0.0000000000000000
    Total Energy =                       -476.4004230673897382
  Basis Set: (AUG-CC-PVTZ AUX)
    Blend: AUG-CC-PVTZ-RI
    Molecular point group: c1
  Basis Set: AUG-CC-PVTZ
    Blend: AUG-CC-PVTZ
  Basis Set: (AUG-CC-PVTZ AUX)
    Blend: AUG-CC-PVTZ-JKFIT
  Basis Set: (AUG-CC-PVTZ AUX)
    Blend: AUG-CC-PVTZ-JKFIT
	 Reference Energy          =    -476.4004230673896814 [Eh]
	 Singles Energy            =      -0.0000000000000001 [Eh]
	 Same-Spin Energy          =      -0.5335117828152864 [Eh]
	 Opposite-Spin Energy      =      -1.6402413432465797 [Eh]
	 Correlation Energy        =      -2.1737531260618663 [Eh]
	 Total Energy              =    -478.5741761934515353 [Eh]

	 ================> DF-SCS-MP2 Energies <==================
	-----------------------------------------------------------
	 SCS Same-Spin Scale       =       0.3333333333333333 [-]
	 SCS Opposite-Spin Scale   =       1.2000000000000000 [-]
	 SCS Same-Spin Energy      =      -0.1778372609384288 [Eh]
	 SCS Opposite-Spin Energy  =      -1.9682896118958955 [Eh]
	 SCS Correlation Energy    =      -2.1461268728343241 [Eh]
	 SCS Total Energy          =    -478.5465499402239971 [Eh]
	-----------------------------------------------------------

  -Total Gradient:
     Atom            X                  Y                   Z
    ------   -----------------  -----------------  -----------------
       1       -0.000004986143     0.000001033794     0.000008641894
       2        0.000006068582    -0.000000436914    -0.000002876069
       3        0.000003815798     0.000002620905     0.000001399977
       4       -0.001056879173    -0.001901779471    -0.000076879833
       5        0.000001425409     0.000003889131    -0.000015699300
       6       -0.002137532997     0.000504431027    -0.000052283508
       7        0.000005473471     0.000010622536     0.000002425753
       8       -0.000018675967     0.000001591670    -0.000003351381
       9        0.000023081155    -0.000001309531     0.000005800157
      10        0.000510316668     0.003047709142     0.000098588224
      11        0.002668285055    -0.001665450198     0.000027846873
      12       -0.000000759402    -0.000002764191    -0.000003642541
      13       -0.000001436199    -0.000000518647     0.000003054634
      14        0.000001053009    -0.000000968936    -0.000001978173
      15       -0.000003155715     0.000000740838    -0.000001231882
      16        0.000010685356    -0.000004796507    -0.000000342045
      17       -0.000006843434     0.000003876770     0.000002640846
      18        0.000005975134     0.000009521263     0.000007485545
      19       -0.000001659359    -0.000005700721     0.000002774385
      20        0.000004025173    -0.000009018968     0.000001163757
      21       -0.000008276424     0.000006707005    -0.000003537322

  **** Optimization is complete! (in 14 steps) ****
    Final optimized geometry and variables:
    Molecular point group: c1

    Geometry (in Angstrom), charge = 0, multiplicity = 1:

    C            0.093364091211     0.037537758473    -3.544533785524
    C           -0.958669476879     0.633983003525    -2.862748506663
    C            1.121703022130    -0.568431762461    -2.835566234616
    C           -0.980242147834     0.627927203935    -1.475292712997
    C            1.098781925837    -0.575780075788    -1.448101033128
    C           -0.292296732811    -1.173686110972     1.396388880502
    C            0.221828331496     1.142409962237     1.468946448865
    C           -0.351424871705    -1.153144002532     2.781675119030
    C            0.140841067837     1.066466721395     2.851222782753
    C            0.052621577700     0.030386966073    -0.756998636092
    C            0.009887607649    -0.002973680589     0.710713208454
    N           -0.139877807585    -0.057502097851     3.514487825448
    H            0.110345572094     0.042660252528    -4.623437228496
    H           -1.764063916084     1.098699728419    -3.410791499010
    H            1.940364017280    -1.034600193017    -3.362324320740
    H           -1.800124627889     1.084348945281    -0.940801468756
    H            1.896886464159    -1.045466062337    -0.892528830989
    H           -0.481113425501    -2.088191436765     0.854533443286
    H            0.454300605277     2.079512557482     0.985783349079
    H           -0.584806379129    -2.055818104157     3.328903754497
    H            0.309561679185     1.947484611635     3.454605868688

*** Psi4 exiting successfully. Buy a developer a beer!
