                               Psi4 1.1 release

  ==> Input File <==

--------------------------------------------------------------------------

memory 5 Gb

molecule phepyrOH_neutral {
  symmetry C1
  0 1
  C      1.885   -1.036   -0.112
  C      2.878   -1.652   2.002
  C      0.807   -0.463   0.561
  C      1.800   -1.079   2.676
  C      5.268   -1.575   -0.122
  C      3.891   -3.450   -0.731
  C      6.308   -2.187   -0.803
  C      4.993   -3.978   -1.385
  C      2.921   -1.631   0.608
  C      4.040   -2.225   -0.090
  C      0.764   -0.484   1.955
  N      6.202   -3.376   -1.437
  O      -0.288   0.076   2.612
  H      1.904   -1.012   -1.199
  H      3.678   -2.112   2.578
  H      0.003   -0.001   -0.006
  H      1.772   -1.098   3.762
  H      5.423   -0.619   0.367
  H      2.947   -3.986   -0.728
  H      7.287   -1.721   -0.855
  H      4.928   -4.930   -1.901
  H      -0.175   -0.018   3.571
  units Angstrom
}

dih_string = "1 9 10 5 105"
set optking fixed_dihedral = $dih_string

optimize('MP2/aug-cc-PVTZ')
--------------------------------------------------------------------------

    Molecular point group: c1
  Charge       = 0
  Multiplicity = 1
  Basis Set: AUG-CC-PVTZ
    Blend: AUG-CC-PVTZ
  Basis Set: (AUG-CC-PVTZ AUX)
    Blend: AUG-CC-PVTZ-JKFIT
  @DF-RHF Final Energy:  -551.28480706844493
    Total Energy =                       -551.2848070684449340
  Basis Set: (AUG-CC-PVTZ AUX)
    Blend: AUG-CC-PVTZ-RI
    Molecular point group: c1
  Basis Set: AUG-CC-PVTZ
    Blend: AUG-CC-PVTZ
  Basis Set: (AUG-CC-PVTZ AUX)
    Blend: AUG-CC-PVTZ-JKFIT
  Basis Set: (AUG-CC-PVTZ AUX)
    Blend: AUG-CC-PVTZ-JKFIT
	 Reference Energy          =    -551.2848070684449340 [Eh]
	 Singles Energy            =      -0.0000000000000001 [Eh]
	 Same-Spin Energy          =      -0.6042004969003119 [Eh]
	 Opposite-Spin Energy      =      -1.8300044236631758 [Eh]
	 Correlation Energy        =      -2.4342049205634879 [Eh]
	 Total Energy              =    -553.7190119890084361 [Eh]
	 SCS Total Energy          =    -553.6822125424741898 [Eh]
  @DF-RHF Final Energy:  -551.29018300961491
    Total Energy =                       -551.2901830096149070
  @DF-RHF Final Energy:  -551.29116254375435
    Total Energy =                       -551.2911625437543535
  @DF-RHF Final Energy:  -551.29113335936358
    Total Energy =                       -551.2911333593635845
  @DF-RHF Final Energy:  -551.29108609509183
    Total Energy =                       -551.2910860950918277
  Charge       = 0
  Multiplicity = 1
  Basis Set: AUG-CC-PVTZ
    Blend: AUG-CC-PVTZ
  Basis Set: (AUG-CC-PVTZ AUX)
    Blend: AUG-CC-PVTZ-JKFIT

    Orbital Energies (a.u.)
    -----------------------

    Doubly Occupied:

       1A    -20.599368     2A    -15.562368     3A    -11.310249
       4A    -11.271972     5A    -11.271922     6A    -11.262998
       7A    -11.250659     8A    -11.248700     9A    -11.244176
      10A    -11.242295    11A    -11.236398    12A    -11.236218
      13A    -11.235929    14A     -1.416514    15A     -1.258778
      16A     -1.173234    17A     -1.104612    18A     -1.035056
      19A     -1.032083    20A     -1.012378    21A     -0.879101
      22A     -0.863185    23A     -0.853218    24A     -0.811555
      25A     -0.745839    26A     -0.725001    27A     -0.679559
      28A     -0.666398    29A     -0.656498    30A     -0.637529
      31A     -0.615943    32A     -0.601696    33A     -0.601085
      34A     -0.596092    35A     -0.581403    36A     -0.540392
      37A     -0.529422    38A     -0.523364    39A     -0.504867
      40A     -0.490102    41A     -0.417208    42A     -0.381445
      43A     -0.356249    44A     -0.346135    45A     -0.321502

  @DF-RHF Final Energy:  -551.29111127762621

   => Energetics <=

    Nuclear Repulsion Energy =            697.0534528144426076
    One-Electron Energy =               -2130.8277391737947255
    Two-Electron Energy =                 882.4831750817259035
    DFT Exchange-Correlation Energy =       0.0000000000000000
    Empirical Dispersion Energy =           0.0000000000000000
    PCM Polarization Energy =               0.0000000000000000
    EFP Energy =                            0.0000000000000000
    Total Energy =                       -551.2911112776262144
  Basis Set: (AUG-CC-PVTZ AUX)
    Blend: AUG-CC-PVTZ-RI
    Molecular point group: c1
  Basis Set: AUG-CC-PVTZ
    Blend: AUG-CC-PVTZ
  Basis Set: (AUG-CC-PVTZ AUX)
    Blend: AUG-CC-PVTZ-JKFIT
  Basis Set: (AUG-CC-PVTZ AUX)
    Blend: AUG-CC-PVTZ-JKFIT
	 Reference Energy          =    -551.2911112776262144 [Eh]
	 Singles Energy            =      -0.0000000000000004 [Eh]
	 Same-Spin Energy          =      -0.6033530257238358 [Eh]
	 Opposite-Spin Energy      =      -1.8277267314961572 [Eh]
	 Correlation Energy        =      -2.4310797572199934 [Eh]
	 Total Energy              =    -553.7221910348462188 [Eh]

	 ================> DF-SCS-MP2 Energies <==================
	-----------------------------------------------------------
	 SCS Same-Spin Scale       =       0.3333333333333333 [-]
	 SCS Opposite-Spin Scale   =       1.2000000000000000 [-]
	 SCS Same-Spin Energy      =      -0.2011176752412786 [Eh]
	 SCS Opposite-Spin Energy  =      -2.1932720777953887 [Eh]
	 SCS Correlation Energy    =      -2.3943897530366676 [Eh]
	 SCS Total Energy          =    -553.6855010306628628 [Eh]
	-----------------------------------------------------------

  -Total Gradient:
     Atom            X                  Y                   Z
    ------   -----------------  -----------------  -----------------
       1        0.001128766367     0.002027504587     0.000127593282
       2        0.000011010019     0.000020789951     0.000052438995
       3       -0.000015687675     0.000008915037     0.000000980486
       4        0.000011103362    -0.000020971789    -0.000023269054
       5       -0.000619767601     0.001082287628    -0.001950549464
       6       -0.000007330005    -0.000021518997    -0.000057619594
       7        0.000000008478     0.000024629675    -0.000122198977
       8        0.000059215511    -0.000068136791     0.000069689461
       9       -0.002019766879    -0.002486126389    -0.001220764164
      10        0.001515499412    -0.000623881772     0.003065849745
      11        0.000023847957    -0.000010164905     0.000018686870
      12       -0.000043915370     0.000023670159     0.000046067665
      13       -0.000012325978     0.000008891281    -0.000009557675
      14       -0.000002020500     0.000008143694    -0.000002255451
      15        0.000001824805     0.000000278490    -0.000009233689
      16        0.000006501078    -0.000004623551     0.000003736465
      17       -0.000009268967     0.000003219673     0.000000861123
      18       -0.000001357620     0.000004487388     0.000000899465
      19       -0.000003757188     0.000009264588    -0.000003122544
      20        0.000005437702     0.000000420260     0.000039952132
      21       -0.000028576671     0.000014790032    -0.000031738497
      22        0.000000559760    -0.000001868252     0.000003553432

  **** Optimization is complete! (in 6 steps) ****
    Final optimized geometry and variables:
    Molecular point group: c1

    Geometry (in Angstrom), charge = 0, multiplicity = 1:

    C           -1.279446181793     0.673339008228    -0.549668671295
    C           -0.275216788366     0.112579513885     1.549779121033
    C           -2.343681417469     1.264958835783     0.109525750128
    C           -1.339452450060     0.700381770051     2.217329772416
    C            2.141507353416     0.124641806202    -0.582275847249
    C            0.784993704914    -1.704175587062    -1.249750545855
    C            3.185004331147    -0.456018009280    -1.287191890299
    C            1.884358646475    -2.208479835071    -1.927977564846
    C           -0.236632629875     0.081492446506     0.159582660357
    C            0.905868339806    -0.511183723250    -0.546514765644
    C           -2.376366025691     1.277012625314     1.496795910233
    N            3.075583936845    -1.606477496609    -1.955561303750
    O           -3.449508124599     1.871529471479     2.090022637065
    H           -1.253556838665     0.672034059632    -1.629342468843
    H            0.529695182709    -0.333911413509     2.114636300542
    H           -3.152067072345     1.726325548932    -0.436055055913
    H           -1.362407511207     0.708848190894     3.298437762982
    H            2.284468722082     1.063008268509    -0.067663391365
    H           -0.154821456956    -2.235611636592    -1.260238417528
    H            4.151809757704     0.026465845104    -1.322208534240
    H            1.806434766185    -3.138276018257    -2.473991318968
    H           -3.349924281298     1.814823594724     3.045027148525

*** Psi4 exiting successfully. Buy a developer a beer!
