                               Psi4 1.1 release

  ==> Input File <==

--------------------------------------------------------------------------

memory 5 Gb

molecule phepyrOH_neutral {
  symmetry C1
  0 1
  C      1.885   -1.036   -0.112
  C      2.878   -1.652   2.002
  C      0.807   -0.463   0.561
  C      1.800   -1.079   2.676
  C      3.862   -2.773   -1.356
  C      5.298   -2.250   0.501
  C      4.965   -3.329   -1.983
  C      6.337   -2.829   -0.209
  C      2.921   -1.631   0.608
  C      4.040   -2.225   -0.090
  C      0.764   -0.484   1.955
  N      6.202   -3.372   -1.440
  O      -0.288   0.076   2.612
  H      1.904   -1.012   -1.199
  H      3.678   -2.112   2.578
  H      0.003   -0.001   -0.006
  H      1.772   -1.098   3.762
  H      2.895   -2.772   -1.850
  H      5.475   -1.833   1.487
  H      4.879   -3.768   -2.972
  H      7.337   -2.875   0.208
  H      -0.796   0.645   2.011
  units Angstrom
}

dih_string = "3 11 13 22 345"
set optking fixed_dihedral = $dih_string

optimize('MP2/aug-cc-PVTZ')
--------------------------------------------------------------------------

    Molecular point group: c1
  Charge       = 0
  Multiplicity = 1
  Basis Set: AUG-CC-PVTZ
    Blend: AUG-CC-PVTZ
  Basis Set: (AUG-CC-PVTZ AUX)
    Blend: AUG-CC-PVTZ-JKFIT
  @DF-RHF Final Energy:  -551.28514361436430
    Total Energy =                       -551.2851436143643014
  Basis Set: (AUG-CC-PVTZ AUX)
    Blend: AUG-CC-PVTZ-RI
    Molecular point group: c1
  Basis Set: AUG-CC-PVTZ
    Blend: AUG-CC-PVTZ
  Basis Set: (AUG-CC-PVTZ AUX)
    Blend: AUG-CC-PVTZ-JKFIT
  Basis Set: (AUG-CC-PVTZ AUX)
    Blend: AUG-CC-PVTZ-JKFIT
	 Reference Energy          =    -551.2851436143643014 [Eh]
	 Singles Energy            =      -0.0000000000000003 [Eh]
	 Same-Spin Energy          =      -0.6052283280138701 [Eh]
	 Opposite-Spin Energy      =      -1.8310441350761963 [Eh]
	 Correlation Energy        =      -2.4362724630900670 [Eh]
	 Total Energy              =    -553.7214160774543643 [Eh]
	 SCS Total Energy          =    -553.6841393524603063 [Eh]
  @DF-RHF Final Energy:  -551.29122103736950
    Total Energy =                       -551.2912210373694961
  @DF-RHF Final Energy:  -551.29268545604157
    Total Energy =                       -551.2926854560415677
  @DF-RHF Final Energy:  -551.29274816155305
    Total Energy =                       -551.2927481615530496
  @DF-RHF Final Energy:  -551.29285020224347
    Total Energy =                       -551.2928502022434714
  @DF-RHF Final Energy:  -551.29289766251054
    Total Energy =                       -551.2928976625105406
  Charge       = 0
  Multiplicity = 1
  Basis Set: AUG-CC-PVTZ
    Blend: AUG-CC-PVTZ
  Basis Set: (AUG-CC-PVTZ AUX)
    Blend: AUG-CC-PVTZ-JKFIT

    Orbital Energies (a.u.)
    -----------------------

    Doubly Occupied:

       1A    -20.601414     2A    -15.559668     3A    -11.313170
       4A    -11.271084     5A    -11.271013     6A    -11.264716
       7A    -11.253089     8A    -11.250937     9A    -11.246349
      10A    -11.243966    11A    -11.237717    12A    -11.235033
      13A    -11.234883    14A     -1.418430    15A     -1.257258
      16A     -1.175588    17A     -1.105423    18A     -1.039180
      19A     -1.030116    20A     -1.013113    21A     -0.881983
      22A     -0.872381    23A     -0.843846    24A     -0.812800
      25A     -0.749358    26A     -0.726069    27A     -0.685107
      28A     -0.661953    29A     -0.655856    30A     -0.635896
      31A     -0.617379    32A     -0.606420    33A     -0.602885
      34A     -0.592702    35A     -0.578650    36A     -0.543997
      37A     -0.534027    38A     -0.524033    39A     -0.499801
      40A     -0.497209    41A     -0.416618    42A     -0.396577
      43A     -0.356539    44A     -0.347578    45A     -0.310441

  @DF-RHF Final Energy:  -551.29290120113251

   => Energetics <=

    Nuclear Repulsion Energy =            697.8443493555203077
    One-Electron Energy =               -2132.3299955097095335
    Two-Electron Energy =                 883.1927449530567173
    DFT Exchange-Correlation Energy =       0.0000000000000000
    Empirical Dispersion Energy =           0.0000000000000000
    PCM Polarization Energy =               0.0000000000000000
    EFP Energy =                            0.0000000000000000
    Total Energy =                       -551.2929012011325085
  Basis Set: (AUG-CC-PVTZ AUX)
    Blend: AUG-CC-PVTZ-RI
    Molecular point group: c1
  Basis Set: AUG-CC-PVTZ
    Blend: AUG-CC-PVTZ
  Basis Set: (AUG-CC-PVTZ AUX)
    Blend: AUG-CC-PVTZ-JKFIT
  Basis Set: (AUG-CC-PVTZ AUX)
    Blend: AUG-CC-PVTZ-JKFIT
	 Reference Energy          =    -551.2929012011325085 [Eh]
	 Singles Energy            =      -0.0000000000000003 [Eh]
	 Same-Spin Energy          =      -0.6040894748374034 [Eh]
	 Opposite-Spin Energy      =      -1.8283854728723867 [Eh]
	 Correlation Energy        =      -2.4324749477097907 [Eh]
	 Total Energy              =    -553.7253761488423152 [Eh]

	 ================> DF-SCS-MP2 Energies <==================
	-----------------------------------------------------------
	 SCS Same-Spin Scale       =       0.3333333333333333 [-]
	 SCS Opposite-Spin Scale   =       1.2000000000000000 [-]
	 SCS Same-Spin Energy      =      -0.2013631582791345 [Eh]
	 SCS Opposite-Spin Energy  =      -2.1940625674468639 [Eh]
	 SCS Correlation Energy    =      -2.3954257257259988 [Eh]
	 SCS Total Energy          =    -553.6883269268585082 [Eh]
	-----------------------------------------------------------

  -Total Gradient:
     Atom            X                  Y                   Z
    ------   -----------------  -----------------  -----------------
       1       -0.000017432538    -0.000000261226    -0.000000620887
       2       -0.000001029294     0.000026591166     0.000032962332
       3       -0.000639605846    -0.001146180876    -0.000071164540
       4        0.000031937617     0.000006505069    -0.000006901126
       5        0.000011633480     0.000006111898    -0.000020517137
       6        0.000008872111    -0.000020714537     0.000009449085
       7       -0.000014217226     0.000028502835    -0.000025190585
       8       -0.000000260309    -0.000022847901     0.000034003625
       9        0.000032908388    -0.000024113391    -0.000033187178
      10       -0.000036180978     0.000024807355     0.000017742442
      11        0.001147969685     0.002063660137     0.000246204319
      12        0.000010435047    -0.000002236243    -0.000005582898
      13       -0.001522981289    -0.002250265126    -0.000645550779
      14        0.000001553146     0.000002502683     0.000002465655
      15        0.000000260827    -0.000004929699    -0.000002786607
      16        0.000004261808     0.000004570139    -0.000006756513
      17       -0.000005606826    -0.000004186956     0.000004711385
      18        0.000007086552    -0.000015799675     0.000000363251
      19        0.000010240726     0.000005938256    -0.000009297911
      20       -0.000011560104    -0.000016215041     0.000001867930
      21        0.000005615360     0.000017901857     0.000001807252
      22        0.000976099649     0.001320659278     0.000475978896

  **** Optimization is complete! (in 7 steps) ****
    Final optimized geometry and variables:
    Molecular point group: c1

    Geometry (in Angstrom), charge = 0, multiplicity = 1:

    C           -1.241421166560     0.765968307793    -0.564801671331
    C           -0.321390046359     0.064218214825     1.527900630396
    C           -2.315543579018     1.338335892533     0.097224715804
    C           -1.387990039807     0.636697550122     2.197462835052
    C            0.755579171203    -1.094361628022    -1.805480745358
    C            2.188234467500    -0.474739557548    -0.023576513673
    C            1.857842996713    -1.651232759569    -2.433527581227
    C            3.231217297347    -1.059349638426    -0.723669485218
    C           -0.226328361850     0.119920512299     0.137280077741
    C            0.905219614461    -0.482813643337    -0.563849239249
    C           -2.387363292055     1.281909969469     1.482626367224
    N            3.088236419627    -1.644451362750    -1.915202486534
    O           -3.428300273827     1.802338250069     2.191946760498
    H           -1.181593903863     0.844772331673    -1.640089016000
    H            0.437063897920    -0.456588786883     2.093217345524
    H           -3.093698328241     1.836580451578    -0.464150487400
    H           -1.464816246308     0.585485913084     3.272363028589
    H           -0.216728666953    -1.160329016369    -2.269973818456
    H            2.380454570432     0.005385874111     0.924046639964
    H            1.746892382445    -2.132916613254    -3.395075031574
    H            4.230992072325    -1.051047440812    -0.312189311665
    H           -3.936095271384     2.386434217623     1.620837024494

*** Psi4 exiting successfully. Buy a developer a beer!
