                               Psi4 1.1 release

  ==> Input File <==

--------------------------------------------------------------------------

memory 5 Gb

molecule phepyrOH_anion {
  symmetry C1
  -1 1
  C      1.885   -1.036   -0.112
  C      2.878   -1.652   2.002
  C      0.807   -0.463   0.561
  C      1.800   -1.079   2.676
  C      5.268   -1.576   -0.122
  C      3.891   -3.451   -0.731
  C      6.309   -2.188   -0.803
  C      4.993   -3.979   -1.384
  C      2.921   -1.631   0.608
  C      4.040   -2.226   -0.090
  C      0.764   -0.484   1.955
  N      6.202   -3.377   -1.437
  O      -0.227   0.042   2.574
  H      1.904   -1.011   -1.199
  H      3.678   -2.112   2.577
  H      0.011   -0.006   -0.025
  H      1.791   -1.108   3.764
  H      5.424   -0.619   0.367
  H      2.947   -3.987   -0.727
  H      7.287   -1.722   -0.856
  H      4.928   -4.931   -1.900
  units Angstrom
}

dih_string = "1 9 10 5 105"
set optking fixed_dihedral = $dih_string

optimize('MP2/aug-cc-PVTZ')
--------------------------------------------------------------------------

    Molecular point group: c1
  Charge       = -1
  Multiplicity = 1
  Basis Set: AUG-CC-PVTZ
    Blend: AUG-CC-PVTZ
  Basis Set: (AUG-CC-PVTZ AUX)
    Blend: AUG-CC-PVTZ-JKFIT
  @DF-RHF Final Energy:  -550.70850565496414
    Total Energy =                       -550.7085056549641422
  Basis Set: (AUG-CC-PVTZ AUX)
    Blend: AUG-CC-PVTZ-RI
    Molecular point group: c1
  Basis Set: AUG-CC-PVTZ
    Blend: AUG-CC-PVTZ
  Basis Set: (AUG-CC-PVTZ AUX)
    Blend: AUG-CC-PVTZ-JKFIT
  Basis Set: (AUG-CC-PVTZ AUX)
    Blend: AUG-CC-PVTZ-JKFIT
	 Reference Energy          =    -550.7085056549641422 [Eh]
	 Singles Energy            =      -0.0000000000000002 [Eh]
	 Same-Spin Energy          =      -0.6132068724252560 [Eh]
	 Opposite-Spin Energy      =      -1.8374370841537797 [Eh]
	 Correlation Energy        =      -2.4506439565790363 [Eh]
	 Total Energy              =    -553.1591496115431710 [Eh]
	 SCS Total Energy          =    -553.1178324467571201 [Eh]
  @DF-RHF Final Energy:  -550.71499054500759
    Total Energy =                       -550.7149905450075948
  @DF-RHF Final Energy:  -550.71884134241793
    Total Energy =                       -550.7188413424179316
  @DF-RHF Final Energy:  -550.72007175796875
    Total Energy =                       -550.7200717579687534
  @DF-RHF Final Energy:  -550.72027615375623
    Total Energy =                       -550.7202761537562310
  @DF-RHF Final Energy:  -550.72036937081202
    Total Energy =                       -550.7203693708120227
  @DF-RHF Final Energy:  -550.72044365233739
    Total Energy =                       -550.7204436523373943
  @DF-RHF Final Energy:  -550.72050796187727
    Total Energy =                       -550.7205079618772743
  @DF-RHF Final Energy:  -550.72049769787998
    Total Energy =                       -550.7204976978799777
  @DF-RHF Final Energy:  -550.72040951245572
    Total Energy =                       -550.7204095124557170
  @DF-RHF Final Energy:  -550.72028427504574
    Total Energy =                       -550.7202842750457421
  @DF-RHF Final Energy:  -550.72053658521838
    Total Energy =                       -550.7205365852183832
  @DF-RHF Final Energy:  -550.72030477902922
    Total Energy =                       -550.7203047790292203
  @DF-RHF Final Energy:  -550.72041401901606
    Total Energy =                       -550.7204140190160615
  @DF-RHF Final Energy:  -550.72047133096805
    Total Energy =                       -550.7204713309680528
  @DF-RHF Final Energy:  -550.72033490434774
    Total Energy =                       -550.7203349043477374
  @DF-RHF Final Energy:  -550.72041699186286
    Total Energy =                       -550.7204169918628622
  @DF-RHF Final Energy:  -550.72031223890860
    Total Energy =                       -550.7203122389086047
  @DF-RHF Final Energy:  -550.72049510677516
    Total Energy =                       -550.7204951067751608
  @DF-RHF Final Energy:  -550.72013200987783
    Total Energy =                       -550.7201320098778297
  Charge       = -1
  Multiplicity = 1
  Basis Set: AUG-CC-PVTZ
    Blend: AUG-CC-PVTZ
  Basis Set: (AUG-CC-PVTZ AUX)
    Blend: AUG-CC-PVTZ-JKFIT

    Orbital Energies (a.u.)
    -----------------------

    Doubly Occupied:

       1A    -20.305484     2A    -15.459892     3A    -11.169925
       4A    -11.169664     5A    -11.148020     6A    -11.125055
       7A    -11.124833     8A    -11.122109     9A    -11.095053
      10A    -11.094314    11A    -11.072971    12A    -11.055681
      13A    -11.055473    14A     -1.153963    15A     -1.135950
      16A     -1.015693    17A     -0.958252    18A     -0.926877
      19A     -0.859985    20A     -0.834914    21A     -0.749826
      22A     -0.736326    23A     -0.671989    24A     -0.647750
      25A     -0.595312    26A     -0.558336    27A     -0.543672
      28A     -0.511342    29A     -0.490027    30A     -0.485906
      31A     -0.477475    32A     -0.435423    33A     -0.429359
      34A     -0.413896    35A     -0.409682    36A     -0.369868
      37A     -0.365663    38A     -0.346505    39A     -0.316245
      40A     -0.294768    41A     -0.259206    42A     -0.244435
      43A     -0.214491    44A     -0.194269    45A     -0.106263

  @DF-RHF Final Energy:  -550.72032367442148

   => Energetics <=

    Nuclear Repulsion Energy =            681.6432565598335032
    One-Electron Energy =               -2113.2228756792351305
    Two-Electron Energy =                 880.8592954449802619
    DFT Exchange-Correlation Energy =       0.0000000000000000
    Empirical Dispersion Energy =           0.0000000000000000
    PCM Polarization Energy =               0.0000000000000000
    EFP Energy =                            0.0000000000000000
    Total Energy =                       -550.7203236744214792
  Basis Set: (AUG-CC-PVTZ AUX)
    Blend: AUG-CC-PVTZ-RI
    Molecular point group: c1
  Basis Set: AUG-CC-PVTZ
    Blend: AUG-CC-PVTZ
  Basis Set: (AUG-CC-PVTZ AUX)
    Blend: AUG-CC-PVTZ-JKFIT
  Basis Set: (AUG-CC-PVTZ AUX)
    Blend: AUG-CC-PVTZ-JKFIT
	 Reference Energy          =    -550.7203236744214792 [Eh]
	 Singles Energy            =      -0.0000000000000007 [Eh]
	 Same-Spin Energy          =      -0.6122900688866151 [Eh]
	 Opposite-Spin Energy      =      -1.8360932365656173 [Eh]
	 Correlation Energy        =      -2.4483833054522330 [Eh]
	 Total Energy              =    -553.1687069798737184 [Eh]

	 ================> DF-SCS-MP2 Energies <==================
	-----------------------------------------------------------
	 SCS Same-Spin Scale       =       0.3333333333333333 [-]
	 SCS Opposite-Spin Scale   =       1.2000000000000000 [-]
	 SCS Same-Spin Energy      =      -0.2040966896288717 [Eh]
	 SCS Opposite-Spin Energy  =      -2.2033118838787407 [Eh]
	 SCS Correlation Energy    =      -2.4074085735076132 [Eh]
	 SCS Total Energy          =    -553.1277322479290888 [Eh]
	-----------------------------------------------------------

  -Total Gradient:
     Atom            X                  Y                   Z
    ------   -----------------  -----------------  -----------------
       1        0.002942617752     0.005687059972     0.000335368004
       2       -0.000008561755    -0.000012580588     0.000018901963
       3       -0.000037359664    -0.000011161038    -0.000004184114
       4       -0.000017586713    -0.000008990042     0.000027870262
       5       -0.001666641991     0.003157147639    -0.005436174746
       6        0.000006286881    -0.000031975971    -0.000011542611
       7        0.000012448343     0.000004678472     0.000011940417
       8        0.000007861281    -0.000026214257     0.000001301340
       9       -0.005189291652    -0.006855305116    -0.003285488251
      10        0.003930483739    -0.001931953725     0.008373973084
      11        0.000078072804     0.000037257867    -0.000031952103
      12       -0.000006421508    -0.000005509703    -0.000013192316
      13       -0.000056891316     0.000001291184     0.000030788416
      14        0.000003365158    -0.000006789004     0.000004809835
      15       -0.000004698324     0.000003714764    -0.000012132673
      16       -0.000003308244    -0.000001395871    -0.000000802100
      17       -0.000001657409    -0.000000873127     0.000006865254
      18       -0.000003309581    -0.000010502854    -0.000002767129
      19        0.000016095835     0.000010194717     0.000001716731
      20        0.000002869766     0.000008408562    -0.000001888151
      21       -0.000004373416    -0.000006501882    -0.000013411112

  **** Optimization is complete! (in 21 steps) ****
    Final optimized geometry and variables:
    Molecular point group: c1

    Geometry (in Angstrom), charge = -1, multiplicity = 1:

    C           -1.333197657693     0.568920056434    -0.529692947373
    C           -0.309925504335     0.154443383718     1.586525534114
    C           -2.371476819708     1.230384438226     0.097214887631
    C           -1.352951663223     0.797916489022     2.223813576716
    C            2.109103708022     0.076738617971    -0.491040078079
    C            0.790329328937    -1.713505173159    -1.282688902017
    C            3.168939387539    -0.444956943722    -1.215296260199
    C            1.898412836026    -2.157979202702    -1.986612991737
    C           -0.288564148945    -0.013819238965     0.197212867693
    C            0.872951609189    -0.571705561895    -0.484561217133
    C           -2.460513741045     1.377784962577     1.520851719195
    N            3.089824074141    -1.550704325440    -1.964784510174
    O           -3.418514869348     1.970419988407     2.100575508563
    H           -1.317333808650     0.503722883495    -1.611796825236
    H            0.504704765899    -0.251860935485     2.175360626645
    H           -3.161801771338     1.675977074578    -0.492427005344
    H           -1.357006335477     0.885156857447     3.302419131364
    H            2.230466474046     0.988822657444     0.074501513784
    H           -0.144152962761    -2.252105766734    -1.340053815138
    H            4.127402887223     0.058112365986    -1.211581956601
    H            1.831019374128    -3.049279689250    -2.597329290541

*** Psi4 exiting successfully. Buy a developer a beer!
