                               Psi4 1.1 release

  ==> Input File <==

--------------------------------------------------------------------------

memory 5 Gb

molecule phepyrOH_cation {
  symmetry C1
  1 1
  C      1.885   -1.036   -0.112
  C      2.878   -1.652   2.002
  C      0.807   -0.463   0.561
  C      1.800   -1.079   2.676
  C      3.817   -3.040   -1.196
  C      5.340   -1.984   0.343
  C      4.909   -3.597   -1.846
  C      6.393   -2.568   -0.346
  C      2.921   -1.631   0.608
  C      4.040   -2.225   -0.090
  C      0.764   -0.484   1.955
  N      6.151   -3.348   -1.408
  O      -0.288   0.076   2.612
  H      1.904   -1.012   -1.199
  H      3.678   -2.112   2.578
  H      0.003   -0.001   -0.006
  H      1.772   -1.098   3.762
  H      2.814   -3.245   -1.556
  H      5.543   -1.353   1.203
  H      4.831   -4.240   -2.712
  H      7.433   -2.436   -0.081
  H      6.939   -3.768   -1.899
  H      -0.175   -0.018   3.571
  units Angstrom
}

dih_string = "1 9 10 5 315"
set optking fixed_dihedral = $dih_string

optimize('MP2/aug-cc-PVTZ')
--------------------------------------------------------------------------

    Molecular point group: c1
  Charge       = 1
  Multiplicity = 1
  Basis Set: AUG-CC-PVTZ
    Blend: AUG-CC-PVTZ
  Basis Set: (AUG-CC-PVTZ AUX)
    Blend: AUG-CC-PVTZ-JKFIT
  @DF-RHF Final Energy:  -551.67582007229885
    Total Energy =                       -551.6758200722988477
  Basis Set: (AUG-CC-PVTZ AUX)
    Blend: AUG-CC-PVTZ-RI
    Molecular point group: c1
  Basis Set: AUG-CC-PVTZ
    Blend: AUG-CC-PVTZ
  Basis Set: (AUG-CC-PVTZ AUX)
    Blend: AUG-CC-PVTZ-JKFIT
  Basis Set: (AUG-CC-PVTZ AUX)
    Blend: AUG-CC-PVTZ-JKFIT
	 Reference Energy          =    -551.6758200722988477 [Eh]
	 Singles Energy            =      -0.0000000000000003 [Eh]
	 Same-Spin Energy          =      -0.5963768210695176 [Eh]
	 Opposite-Spin Energy      =      -1.8250797876799474 [Eh]
	 Correlation Energy        =      -2.4214566087494656 [Eh]
	 Total Energy              =    -554.0972766810483563 [Eh]
	 SCS Total Energy          =    -554.0647080912045794 [Eh]
  @DF-RHF Final Energy:  -551.68049498030507
    Total Energy =                       -551.6804949803050704
  @DF-RHF Final Energy:  -551.68150926284477
    Total Energy =                       -551.6815092628447701
  @DF-RHF Final Energy:  -551.68156413863358
    Total Energy =                       -551.6815641386335756
  @DF-RHF Final Energy:  -551.68156343988153
    Total Energy =                       -551.6815634398815291
  @DF-RHF Final Energy:  -551.68156698638927
    Total Energy =                       -551.6815669863892708
  Charge       = 1
  Multiplicity = 1
  Basis Set: AUG-CC-PVTZ
    Blend: AUG-CC-PVTZ
  Basis Set: (AUG-CC-PVTZ AUX)
    Blend: AUG-CC-PVTZ-JKFIT

    Orbital Energies (a.u.)
    -----------------------

    Doubly Occupied:

       1A    -20.705198     2A    -15.830894     3A    -11.481458
       4A    -11.481044     5A    -11.448768     6A    -11.431379
       7A    -11.410937     8A    -11.410774     9A    -11.377193
      10A    -11.374164    11A    -11.370354    12A    -11.353948
      13A    -11.347060    14A     -1.528167    15A     -1.508872
      16A     -1.318433    17A     -1.265821    18A     -1.239210
      19A     -1.156006    20A     -1.153697    21A     -1.063529
      22A     -1.057427    23A     -0.978206    24A     -0.962865
      25A     -0.952113    26A     -0.871914    27A     -0.861316
      28A     -0.855342    29A     -0.819656    30A     -0.801146
      31A     -0.786539    32A     -0.772217    33A     -0.755786
      34A     -0.730696    35A     -0.722119    36A     -0.709557
      37A     -0.704079    38A     -0.687372    39A     -0.659079
      40A     -0.631115    41A     -0.617614    42A     -0.570129
      43A     -0.539754    44A     -0.472087    45A     -0.435865

  @DF-RHF Final Energy:  -551.68156639086760

   => Energetics <=

    Nuclear Repulsion Energy =            713.7104384283752552
    One-Electron Energy =               -2150.3622063108296061
    Two-Electron Energy =                 884.9702014915867494
    DFT Exchange-Correlation Energy =       0.0000000000000000
    Empirical Dispersion Energy =           0.0000000000000000
    PCM Polarization Energy =               0.0000000000000000
    EFP Energy =                            0.0000000000000000
    Total Energy =                       -551.6815663908676015
  Basis Set: (AUG-CC-PVTZ AUX)
    Blend: AUG-CC-PVTZ-RI
    Molecular point group: c1
  Basis Set: AUG-CC-PVTZ
    Blend: AUG-CC-PVTZ
  Basis Set: (AUG-CC-PVTZ AUX)
    Blend: AUG-CC-PVTZ-JKFIT
  Basis Set: (AUG-CC-PVTZ AUX)
    Blend: AUG-CC-PVTZ-JKFIT
	 Reference Energy          =    -551.6815663908676015 [Eh]
	 Singles Energy            =      -0.0000000000000004 [Eh]
	 Same-Spin Energy          =      -0.5958267613066069 [Eh]
	 Opposite-Spin Energy      =      -1.8233925647938849 [Eh]
	 Correlation Energy        =      -2.4192193261004924 [Eh]
	 Total Energy              =    -554.1007857169680619 [Eh]

	 ================> DF-SCS-MP2 Energies <==================
	-----------------------------------------------------------
	 SCS Same-Spin Scale       =       0.3333333333333333 [-]
	 SCS Opposite-Spin Scale   =       1.2000000000000000 [-]
	 SCS Same-Spin Energy      =      -0.1986089204355356 [Eh]
	 SCS Opposite-Spin Energy  =      -2.1880710777526620 [Eh]
	 SCS Correlation Energy    =      -2.3866799981881979 [Eh]
	 SCS Total Energy          =    -554.0682463890558438 [Eh]
	-----------------------------------------------------------

  -Total Gradient:
     Atom            X                  Y                   Z
    ------   -----------------  -----------------  -----------------
       1        0.001890414198     0.003628301563     0.000165747001
       2        0.000003954637    -0.000030043874     0.000008746635
       3       -0.000004095642    -0.000025921406    -0.000019187661
       4        0.000012604200     0.000023499168    -0.000001521709
       5       -0.000123394013    -0.003324786056     0.002376274149
       6        0.000015037345    -0.000014573726    -0.000004094953
       7       -0.000000743787    -0.000027943616     0.000018640103
       8        0.000001625919     0.000019833299     0.000019064817
       9       -0.002878534352    -0.007014902017     0.000924811592
      10        0.001101818320     0.006747693658    -0.003474097344
      11        0.000005482598    -0.000009837077     0.000017975958
      12       -0.000011210399     0.000003921866    -0.000017802993
      13       -0.000001265237     0.000001925838    -0.000005524564
      14       -0.000000235001    -0.000000754965    -0.000001673561
      15        0.000003566027     0.000005342529    -0.000002096794
      16       -0.000001317634     0.000002135726     0.000007124769
      17       -0.000003590998    -0.000003714722    -0.000001047717
      18       -0.000006611899     0.000006238832    -0.000002979161
      19       -0.000004666533     0.000007296658    -0.000000026166
      20        0.000001043430     0.000005555993    -0.000005339751
      21        0.000001237126    -0.000003295019    -0.000002216829
      22        0.000000073285     0.000001508921    -0.000000510835
      23       -0.000001191591     0.000002518430    -0.000000264979

  **** Optimization is complete! (in 7 steps) ****
    Final optimized geometry and variables:
    Molecular point group: c1

    Geometry (in Angstrom), charge = 1, multiplicity = 1:

    C           -1.318574793677     0.675445053073    -0.554528797639
    C           -0.264795599990     0.139459372124     1.544089629126
    C           -2.368567849370     1.262285702412     0.118258972977
    C           -1.327979162744     0.703322742026     2.221278114596
    C            0.687875476750    -1.259121488898    -1.698575430104
    C            2.182470635594    -0.271382852519    -0.114608586564
    C            1.765120812120    -1.805751419547    -2.350096163784
    C            3.238822828008    -0.835091108788    -0.785834254273
    C           -0.258347098381     0.094928173590     0.148657985934
    C            0.870299390028    -0.458169902039    -0.564837955181
    C           -2.383532444885     1.271251852482     1.511170177791
    N            3.002803936345    -1.578986166858    -1.879155698596
    O           -3.445599723175     1.847753834519     2.100644840026
    H           -1.306135729093     0.695015513816    -1.634681696921
    H            0.539780368065    -0.311448504733     2.106532155764
    H           -3.183154335583     1.728188325438    -0.413382329561
    H           -1.340985668645     0.702970354782     3.301544602806
    H           -0.304203968920    -1.469462411548    -2.064496985162
    H            2.382164818942     0.341970013219     0.749026672066
    H            1.682666844640    -2.432444162257    -3.222414224599
    H            4.268311662035    -0.711018973082    -0.493856115727
    H            3.789567668185    -1.988910561851    -2.365861751084
    H           -3.362699011170     1.807834218576     3.059877439141

*** Psi4 exiting successfully. Buy a developer a beer!
