                               Psi4 1.1 release

  ==> Input File <==

--------------------------------------------------------------------------

memory 5 Gb

molecule phepyrOH_neutral {
  symmetry C1
  0 1
  C      1.885   -1.036   -0.112
  C      2.878   -1.652   2.002
  C      0.807   -0.463   0.561
  C      1.800   -1.079   2.676
  C      3.862   -2.773   -1.356
  C      5.298   -2.250   0.501
  C      4.965   -3.329   -1.983
  C      6.337   -2.829   -0.209
  C      2.921   -1.631   0.608
  C      4.040   -2.225   -0.090
  C      0.764   -0.484   1.955
  N      6.202   -3.372   -1.440
  O      -0.288   0.076   2.612
  H      1.904   -1.012   -1.199
  H      3.678   -2.112   2.578
  H      0.003   -0.001   -0.006
  H      1.772   -1.098   3.762
  H      2.895   -2.772   -1.850
  H      5.475   -1.833   1.487
  H      4.879   -3.768   -2.972
  H      7.337   -2.875   0.208
  H      0.019   0.788   3.195
  units Angstrom
}

dih_string = "3 11 13 22 240"
set optking fixed_dihedral = $dih_string

optimize('MP2/aug-cc-PVTZ')
--------------------------------------------------------------------------

    Molecular point group: c1
  Charge       = 0
  Multiplicity = 1
  Basis Set: AUG-CC-PVTZ
    Blend: AUG-CC-PVTZ
  Basis Set: (AUG-CC-PVTZ AUX)
    Blend: AUG-CC-PVTZ-JKFIT
  @DF-RHF Final Energy:  -551.28252732229953
    Total Energy =                       -551.2825273222995293
  Basis Set: (AUG-CC-PVTZ AUX)
    Blend: AUG-CC-PVTZ-RI
    Molecular point group: c1
  Basis Set: AUG-CC-PVTZ
    Blend: AUG-CC-PVTZ
  Basis Set: (AUG-CC-PVTZ AUX)
    Blend: AUG-CC-PVTZ-JKFIT
  Basis Set: (AUG-CC-PVTZ AUX)
    Blend: AUG-CC-PVTZ-JKFIT
	 Reference Energy          =    -551.2825273222995293 [Eh]
	 Singles Energy            =      -0.0000000000000004 [Eh]
	 Same-Spin Energy          =      -0.6048236893732625 [Eh]
	 Opposite-Spin Energy      =      -1.8304442980872493 [Eh]
	 Correlation Energy        =      -2.4352679874605121 [Eh]
	 Total Energy              =    -553.7177953097600493 [Eh]
	 SCS Total Energy          =    -553.6806683764619947 [Eh]
  @DF-RHF Final Energy:  -551.28836977862056
    Total Energy =                       -551.2883697786205630
  @DF-RHF Final Energy:  -551.28960089467216
    Total Energy =                       -551.2896008946721622
  @DF-RHF Final Energy:  -551.28962181856139
    Total Energy =                       -551.2896218185613861
  @DF-RHF Final Energy:  -551.28973588428289
    Total Energy =                       -551.2897358842828908
  @DF-RHF Final Energy:  -551.28978841003391
    Total Energy =                       -551.2897884100339070
  @DF-RHF Final Energy:  -551.28978976402959
    Total Energy =                       -551.2897897640295923
  @DF-RHF Final Energy:  -551.28979599848572
    Total Energy =                       -551.2897959984857152
  Charge       = 0
  Multiplicity = 1
  Basis Set: AUG-CC-PVTZ
    Blend: AUG-CC-PVTZ
  Basis Set: (AUG-CC-PVTZ AUX)
    Blend: AUG-CC-PVTZ-JKFIT

    Orbital Energies (a.u.)
    -----------------------

    Doubly Occupied:

       1A    -20.590752     2A    -15.561396     3A    -11.306728
       4A    -11.272443     5A    -11.272324     6A    -11.266002
       7A    -11.251741     8A    -11.250730     9A    -11.249692
      10A    -11.243318    11A    -11.240356    12A    -11.236846
      13A    -11.236621    14A     -1.405430    15A     -1.258791
      16A     -1.175989    17A     -1.106214    18A     -1.039381
      19A     -1.030628    20A     -1.012932    21A     -0.880060
      22A     -0.872246    23A     -0.841399    24A     -0.812505
      25A     -0.746301    26A     -0.724804    27A     -0.683579
      28A     -0.662700    29A     -0.652630    30A     -0.641328
      31A     -0.634700    32A     -0.606570    33A     -0.598028
      34A     -0.594131    35A     -0.550059    36A     -0.545354
      37A     -0.533434    38A     -0.516291    39A     -0.510366
      40A     -0.485416    41A     -0.418077    42A     -0.400424
      43A     -0.355249    44A     -0.348881    45A     -0.318104

  @DF-RHF Final Energy:  -551.28978980559157

   => Energetics <=

    Nuclear Repulsion Energy =            697.4501865002920340
    One-Electron Energy =               -2131.5980564629876426
    Two-Electron Energy =                 882.8580801571039274
    DFT Exchange-Correlation Energy =       0.0000000000000000
    Empirical Dispersion Energy =           0.0000000000000000
    PCM Polarization Energy =               0.0000000000000000
    EFP Energy =                            0.0000000000000000
    Total Energy =                       -551.2897898055915675
  Basis Set: (AUG-CC-PVTZ AUX)
    Blend: AUG-CC-PVTZ-RI
    Molecular point group: c1
  Basis Set: AUG-CC-PVTZ
    Blend: AUG-CC-PVTZ
  Basis Set: (AUG-CC-PVTZ AUX)
    Blend: AUG-CC-PVTZ-JKFIT
  Basis Set: (AUG-CC-PVTZ AUX)
    Blend: AUG-CC-PVTZ-JKFIT
	 Reference Energy          =    -551.2897898055915675 [Eh]
	 Singles Energy            =      -0.0000000000000002 [Eh]
	 Same-Spin Energy          =      -0.6036819572549347 [Eh]
	 Opposite-Spin Energy      =      -1.8280181967047657 [Eh]
	 Correlation Energy        =      -2.4317001539597003 [Eh]
	 Total Energy              =    -553.7214899595512634 [Eh]

	 ================> DF-SCS-MP2 Energies <==================
	-----------------------------------------------------------
	 SCS Same-Spin Scale       =       0.3333333333333333 [-]
	 SCS Opposite-Spin Scale   =       1.2000000000000000 [-]
	 SCS Same-Spin Energy      =      -0.2012273190849782 [Eh]
	 SCS Opposite-Spin Energy  =      -2.1936218360457187 [Eh]
	 SCS Correlation Energy    =      -2.3948491551306970 [Eh]
	 SCS Total Energy          =    -553.6846389607222818 [Eh]
	-----------------------------------------------------------

  -Total Gradient:
     Atom            X                  Y                   Z
    ------   -----------------  -----------------  -----------------
       1        0.000015786657     0.000025761819    -0.000012733254
       2        0.000013482932     0.000005713337     0.000003017457
       3        0.000957325137     0.001702191486     0.000137252124
       4        0.000026162824     0.000059853775     0.000011217636
       5       -0.000008113401    -0.000037970200     0.000016681760
       6        0.000006416104     0.000040491508    -0.000019234876
       7        0.000015746672     0.000249347710    -0.000121349108
       8       -0.000069512067    -0.000236804417     0.000161096443
       9       -0.000020963256    -0.000012735401     0.000003934056
      10        0.000002856372    -0.000001516467     0.000004773676
      11       -0.001533278692    -0.002237251179    -0.000655831017
      12        0.000035904958    -0.000015365954    -0.000027363647
      13        0.000766152203    -0.001337403872     0.002384107034
      14       -0.000006582485     0.000006628561    -0.000019845700
      15        0.000006743602    -0.000011677075     0.000019528135
      16       -0.000007621864     0.000013162602    -0.000015474557
      17        0.000002156876    -0.000014231143     0.000018333270
      18       -0.000019878040    -0.000027239089    -0.000008346209
      19        0.000019240490     0.000031910563     0.000008512778
      20       -0.000015158598    -0.000094497861     0.000037092507
      21        0.000029556363     0.000093546843    -0.000050333240
      22       -0.000216422773     0.001798084456    -0.001875035253

  **** Optimization is complete! (in 9 steps) ****
    Final optimized geometry and variables:
    Molecular point group: c1

    Geometry (in Angstrom), charge = 0, multiplicity = 1:

    C           -1.241469385273     0.767191756560    -0.558180071892
    C           -0.309739870518     0.059899920046     1.531403064567
    C           -2.307066919633     1.348568878619     0.109116807174
    C           -1.382132498523     0.623443405065     2.203502879095
    C            0.744552656266    -1.101286811403    -1.803648284288
    C            2.190337697131    -0.472593956854    -0.034659474467
    C            1.843092653827    -1.658979581492    -2.437750384080
    C            3.228733194194    -1.058817446925    -0.740199879874
    C           -0.224225146012     0.118966009649     0.141119424713
    C            0.903720641016    -0.485093134116    -0.565718599616
    C           -2.380855612642     1.273401978475     1.491555370279
    N            3.077176604989    -1.648503575700    -1.928392271625
    O           -3.472149192838     1.822150035363     2.125856729745
    H           -1.179393480670     0.850639895506    -1.633093474776
    H            0.450522692442    -0.464842086120     2.090811593331
    H           -3.086184532312     1.866812099137    -0.427812837228
    H           -1.460190397162     0.547645560956     3.277733089280
    H           -0.231364792052    -1.169895038213    -2.260156652917
    H            2.388637595286     0.011856731822     0.909574762642
    H            1.725810488233    -2.145681354727    -3.395969113375
    H            4.231979207999    -1.046296114327    -0.337450532097
    H           -3.169805368097     2.504857754328     2.730926263097

*** Psi4 exiting successfully. Buy a developer a beer!
