                               Psi4 1.1 release

  ==> Input File <==

--------------------------------------------------------------------------

memory 5 Gb

molecule phepyrF {
  symmetry C1
  0 1
  C      1.885   -1.036   -0.112
  C      0.807   -0.463   0.561
  C      2.921   -1.631   0.608
  C      0.764   -0.484   1.955
  C      4.457   -3.505   2.351
  C      4.494   -1.630   3.856
  C      5.489   -4.053   3.094
  C      5.524   -2.262   4.532
  C      2.878   -1.652   2.002
  C      3.955   -2.270   2.745
  C      1.800   -1.079   2.676
  N      6.038   -3.461   4.179
  F      1.744   -1.089   4.016
  H      1.918   -1.020   -1.198
  H      0.000   -0.000   -0.000
  H      3.755   -2.073   0.068
  H      -0.076   -0.038   2.480
  H      4.063   -4.035   1.489
  H      4.128   -0.665   4.193
  H      5.917   -5.014   2.827
  H      5.978   -1.805   5.405
  units Angstrom
}

dih_string = "3 9 10 5 315"
set optking { fixed_dihedral = $dih_string
              dynamic_level = 1
              geom_maxiter = 250
              print_trajectory_xyz_file = True }

optimize('MP2/aug-cc-PVTZ')
--------------------------------------------------------------------------

    Molecular point group: c1
  Charge       = 0
  Multiplicity = 1
  Basis Set: AUG-CC-PVTZ
    Blend: AUG-CC-PVTZ
  Basis Set: (AUG-CC-PVTZ AUX)
    Blend: AUG-CC-PVTZ-JKFIT
  @DF-RHF Final Energy:  -575.28346848982608
    Total Energy =                       -575.2834684898260775
  Basis Set: (AUG-CC-PVTZ AUX)
    Blend: AUG-CC-PVTZ-RI
    Molecular point group: c1
  Basis Set: AUG-CC-PVTZ
    Blend: AUG-CC-PVTZ
  Basis Set: (AUG-CC-PVTZ AUX)
    Blend: AUG-CC-PVTZ-JKFIT
  Basis Set: (AUG-CC-PVTZ AUX)
    Blend: AUG-CC-PVTZ-JKFIT
	 Reference Energy          =    -575.2834684898260775 [Eh]
	 Singles Energy            =      -0.0000000000000003 [Eh]
	 Same-Spin Energy          =      -0.6083663742580502 [Eh]
	 Opposite-Spin Energy      =      -1.8325931365347217 [Eh]
	 Correlation Energy        =      -2.4409595107927724 [Eh]
	 Total Energy              =    -577.7244280006189001 [Eh]
	 SCS Total Energy          =    -577.6853690450870999 [Eh]
  @DF-RHF Final Energy:  -575.28915315561130
    Total Energy =                       -575.2891531556113023
  @DF-RHF Final Energy:  -575.29048776664797
    Total Energy =                       -575.2904877666479706
  @DF-RHF Final Energy:  -575.29051685281047
    Total Energy =                       -575.2905168528104696
  @DF-RHF Final Energy:  -575.29047725318492
    Total Energy =                       -575.2904772531849176
  Charge       = 0
  Multiplicity = 1
  Basis Set: AUG-CC-PVTZ
    Blend: AUG-CC-PVTZ
  Basis Set: (AUG-CC-PVTZ AUX)
    Blend: AUG-CC-PVTZ-JKFIT

    Orbital Energies (a.u.)
    -----------------------

    Doubly Occupied:

       1A    -26.317876     2A    -15.563827     3A    -11.338522
       4A    -11.273103     5A    -11.272013     6A    -11.269277
       7A    -11.262561     8A    -11.257215     9A    -11.257010
      10A    -11.251439    11A    -11.247769    12A    -11.240149
      13A    -11.238265    14A     -1.636869    15A     -1.260263
      16A     -1.186832    17A     -1.115760    18A     -1.039842
      19A     -1.034397    20A     -1.029479    21A     -0.893194
      22A     -0.873075    23A     -0.847772    24A     -0.827067
      25A     -0.756772    26A     -0.723054    27A     -0.715181
      28A     -0.704807    29A     -0.672456    30A     -0.664554
      31A     -0.653263    32A     -0.626023    33A     -0.612386
      34A     -0.597978    35A     -0.592900    36A     -0.550956
      37A     -0.540125    38A     -0.526813    39A     -0.520068
      40A     -0.510013    41A     -0.419255    42A     -0.405577
      43A     -0.355137    44A     -0.348930    45A     -0.335221

  @DF-RHF Final Energy:  -575.29052371247792

   => Energetics <=

    Nuclear Repulsion Energy =            715.8391256163857861
    One-Electron Energy =               -2203.5292117669741856
    Two-Electron Energy =                 912.3995624381103653
    DFT Exchange-Correlation Energy =       0.0000000000000000
    Empirical Dispersion Energy =           0.0000000000000000
    PCM Polarization Energy =               0.0000000000000000
    EFP Energy =                            0.0000000000000000
    Total Energy =                       -575.2905237124779205
  Basis Set: (AUG-CC-PVTZ AUX)
    Blend: AUG-CC-PVTZ-RI
    Molecular point group: c1
  Basis Set: AUG-CC-PVTZ
    Blend: AUG-CC-PVTZ
  Basis Set: (AUG-CC-PVTZ AUX)
    Blend: AUG-CC-PVTZ-JKFIT
  Basis Set: (AUG-CC-PVTZ AUX)
    Blend: AUG-CC-PVTZ-JKFIT
	 Reference Energy          =    -575.2905237124779205 [Eh]
	 Singles Energy            =      -0.0000000000000009 [Eh]
	 Same-Spin Energy          =      -0.6073426108865471 [Eh]
	 Opposite-Spin Energy      =      -1.8300263797303697 [Eh]
	 Correlation Energy        =      -2.4373689906169176 [Eh]
	 Total Energy              =    -577.7278927030948807 [Eh]

	 ================> DF-SCS-MP2 Energies <==================
	-----------------------------------------------------------
	 SCS Same-Spin Scale       =       0.3333333333333333 [-]
	 SCS Opposite-Spin Scale   =       1.2000000000000000 [-]
	 SCS Same-Spin Energy      =      -0.2024475369621823 [Eh]
	 SCS Opposite-Spin Energy  =      -2.1960316556764434 [Eh]
	 SCS Correlation Energy    =      -2.3984791926386269 [Eh]
	 SCS Total Energy          =    -577.6890029051165811 [Eh]
	-----------------------------------------------------------

  -Total Gradient:
     Atom            X                  Y                   Z
    ------   -----------------  -----------------  -----------------
       1       -0.000029887845    -0.000021397856     0.000033638629
       2        0.000048345068     0.000017451011    -0.000036032428
       3        0.000426877669     0.000839342030     0.000002818885
       4       -0.000008227333     0.000003328953     0.000050839706
       5       -0.000554330952    -0.000454775872     0.000479789234
       6       -0.000037035158     0.000011239212     0.000062519300
       7       -0.000119264673    -0.000107873714     0.000131651307
       8        0.000070961055     0.000064259721    -0.000066606903
       9       -0.000798111320    -0.001492267599     0.000263971001
      10        0.001023568196     0.001115977453    -0.000829762025
      11       -0.000086151946    -0.000032392265    -0.000179363985
      12        0.000010245212     0.000023154192    -0.000037918600
      13        0.000035435101     0.000023087385     0.000123619318
      14       -0.000000524528     0.000001207411    -0.000001143098
      15       -0.000001079019     0.000000919248     0.000001262700
      16        0.000000845454    -0.000007018373     0.000014011434
      17        0.000005208078    -0.000001150608     0.000008212293
      18        0.000009169794     0.000011725217     0.000000232070
      19        0.000013332314    -0.000016452398     0.000004493314
      20        0.000031098813     0.000021266268    -0.000063617632
      21       -0.000040473971     0.000000370581     0.000037385472

  **** Optimization is complete! (in 6 steps) ****
    Final optimized geometry and variables:
    Molecular point group: c1

    Geometry (in Angstrom), charge = 0, multiplicity = 1:

    C           -1.377435621690     0.841659861369    -2.662437131766
    C           -2.456845553876     1.417427443202    -2.006578753365
    C           -0.358121629720     0.255278878015    -1.929809405745
    C           -2.511793790817     1.404030755613    -0.620820276485
    C            1.218464767557    -1.625179248533    -0.161464130268
    C            1.271234517325     0.217016111402     1.335179534812
    C            2.266308495348    -2.177904565768     0.557311629349
    C            2.318583768244    -0.412186604099     1.988735247275
    C           -0.386863394941     0.225654322154    -0.535173410705
    C            0.700755123585    -0.392214448244     0.222322265799
    C           -1.481825588036     0.816105048991     0.083738233249
    N            2.822555729800    -1.592435414193     1.619895235282
    F           -1.562735093420     0.796379062385     1.427908362220
    H           -1.326123599921     0.856701506427    -3.739560167409
    H           -3.254952762902     1.877998936203    -2.567514003946
    H            0.493001524908    -0.176671113194    -2.434737568435
    H           -3.337923764637     1.835900885775    -0.079693400361
    H            0.798798142891    -2.154898207097    -1.003552985246
    H            0.913668723207     1.173541343288     1.681170180857
    H            2.675416653559    -3.136218913665     0.269455472747
    H            2.775650431546     0.053871292534     2.850209857059

*** Psi4 exiting successfully. Buy a developer a beer!
