                               Psi4 1.1 release

  ==> Input File <==

--------------------------------------------------------------------------

memory 5 Gb

molecule phepyrOH_cation {
  symmetry C1
  1 1
  C      1.885   -1.036   -0.112
  C      2.878   -1.652   2.002
  C      0.807   -0.463   0.561
  C      1.800   -1.079   2.676
  C      4.440   -1.719   -1.322
  C      4.716   -3.305   0.469
  C      5.516   -2.309   -1.970
  C      5.786   -3.855   -0.224
  C      2.921   -1.631   0.608
  C      4.040   -2.225   -0.090
  C      0.764   -0.484   1.955
  N      6.150   -3.348   -1.409
  O      -0.288   0.076   2.612
  H      1.904   -1.012   -1.199
  H      3.678   -2.112   2.578
  H      0.003   -0.001   -0.006
  H      1.772   -1.098   3.762
  H      3.931   -0.877   -1.782
  H      4.425   -3.721   1.429
  H      5.897   -1.982   -2.928
  H      6.368   -4.693   0.134
  H      6.938   -3.767   -1.902
  H      -0.073   0.196   3.551
  units Angstrom
}

dih_string = "3 11 13 23 195"
set optking fixed_dihedral = $dih_string

optimize('MP2/aug-cc-PVTZ')
--------------------------------------------------------------------------

    Molecular point group: c1
  Charge       = 1
  Multiplicity = 1
  Basis Set: AUG-CC-PVTZ
    Blend: AUG-CC-PVTZ
  Basis Set: (AUG-CC-PVTZ AUX)
    Blend: AUG-CC-PVTZ-JKFIT
  @DF-RHF Final Energy:  -551.67561419405479
    Total Energy =                       -551.6756141940547877
  Basis Set: (AUG-CC-PVTZ AUX)
    Blend: AUG-CC-PVTZ-RI
    Molecular point group: c1
  Basis Set: AUG-CC-PVTZ
    Blend: AUG-CC-PVTZ
  Basis Set: (AUG-CC-PVTZ AUX)
    Blend: AUG-CC-PVTZ-JKFIT
  Basis Set: (AUG-CC-PVTZ AUX)
    Blend: AUG-CC-PVTZ-JKFIT
	 Reference Energy          =    -551.6756141940547877 [Eh]
	 Singles Energy            =      -0.0000000000000000 [Eh]
	 Same-Spin Energy          =      -0.5966518094386093 [Eh]
	 Opposite-Spin Energy      =      -1.8255436673611329 [Eh]
	 Correlation Energy        =      -2.4221954767997422 [Eh]
	 Total Energy              =    -554.0978096708545309 [Eh]
	 SCS Total Energy          =    -554.0651505313676353 [Eh]
  @DF-RHF Final Energy:  -551.68115212355281
    Total Energy =                       -551.6811521235528062
  @DF-RHF Final Energy:  -551.68245302469666
    Total Energy =                       -551.6824530246966560
  @DF-RHF Final Energy:  -551.68244609631552
    Total Energy =                       -551.6824460963155161
  @DF-RHF Final Energy:  -551.68244659857316
    Total Energy =                       -551.6824465985731649
  Charge       = 1
  Multiplicity = 1
  Basis Set: AUG-CC-PVTZ
    Blend: AUG-CC-PVTZ
  Basis Set: (AUG-CC-PVTZ AUX)
    Blend: AUG-CC-PVTZ-JKFIT

    Orbital Energies (a.u.)
    -----------------------

    Doubly Occupied:

       1A    -20.708385     2A    -15.826032     3A    -11.478352
       4A    -11.478234     5A    -11.449241     6A    -11.436022
       7A    -11.408344     8A    -11.408095     9A    -11.380791
      10A    -11.377372    11A    -11.373069    12A    -11.356085
      13A    -11.349588    14A     -1.531499    15A     -1.505251
      16A     -1.318381    17A     -1.266652    18A     -1.236424
      19A     -1.157506    20A     -1.156895    21A     -1.061486
      22A     -1.057620    23A     -0.979652    24A     -0.960929
      25A     -0.954446    26A     -0.873375    27A     -0.861772
      28A     -0.855477    29A     -0.819800    30A     -0.799593
      31A     -0.783052    32A     -0.770364    33A     -0.758830
      34A     -0.733956    35A     -0.723510    36A     -0.713131
      37A     -0.702145    38A     -0.685266    39A     -0.662759
      40A     -0.638061    41A     -0.619230    42A     -0.569278
      43A     -0.538264    44A     -0.474704    45A     -0.437217

  @DF-RHF Final Energy:  -551.68246321077254

   => Energetics <=

    Nuclear Repulsion Energy =            713.5548937596512360
    One-Electron Energy =               -2150.0024519348153262
    Two-Electron Energy =                 884.7650949643914373
    DFT Exchange-Correlation Energy =       0.0000000000000000
    Empirical Dispersion Energy =           0.0000000000000000
    PCM Polarization Energy =               0.0000000000000000
    EFP Energy =                            0.0000000000000000
    Total Energy =                       -551.6824632107725392
  Basis Set: (AUG-CC-PVTZ AUX)
    Blend: AUG-CC-PVTZ-RI
    Molecular point group: c1
  Basis Set: AUG-CC-PVTZ
    Blend: AUG-CC-PVTZ
  Basis Set: (AUG-CC-PVTZ AUX)
    Blend: AUG-CC-PVTZ-JKFIT
  Basis Set: (AUG-CC-PVTZ AUX)
    Blend: AUG-CC-PVTZ-JKFIT
	 Reference Energy          =    -551.6824632107725392 [Eh]
	 Singles Energy            =      -0.0000000000000001 [Eh]
	 Same-Spin Energy          =      -0.5957314809110468 [Eh]
	 Opposite-Spin Energy      =      -1.8234277092491591 [Eh]
	 Correlation Energy        =      -2.4191591901602059 [Eh]
	 Total Energy              =    -554.1016224009327971 [Eh]

	 ================> DF-SCS-MP2 Energies <==================
	-----------------------------------------------------------
	 SCS Same-Spin Scale       =       0.3333333333333333 [-]
	 SCS Opposite-Spin Scale   =       1.2000000000000000 [-]
	 SCS Same-Spin Energy      =      -0.1985771603036822 [Eh]
	 SCS Opposite-Spin Energy  =      -2.1881132510989909 [Eh]
	 SCS Correlation Energy    =      -2.3866904114026730 [Eh]
	 SCS Total Energy          =    -554.0691536221752358 [Eh]
	-----------------------------------------------------------

  -Total Gradient:
     Atom            X                  Y                   Z
    ------   -----------------  -----------------  -----------------
       1       -0.000084866972     0.000068852464    -0.000010969228
       2       -0.000028039111    -0.000012023624     0.000027285229
       3        0.001071057020     0.001712595094     0.000034610142
       4       -0.000019618174     0.000055284059     0.000001059958
       5        0.000029565336     0.000018979300    -0.000025148065
       6        0.000006770477    -0.000048222988    -0.000003828897
       7       -0.000009329165    -0.000023951816     0.000025972052
       8       -0.000010718683     0.000026243826    -0.000011332873
       9        0.000057139117    -0.000027470527    -0.000011199465
      10       -0.000019186903     0.000026494635     0.000025124901
      11       -0.001209298453    -0.001998412840    -0.000269420642
      12        0.000000458637     0.000004517105    -0.000001596309
      13       -0.000874152589    -0.002372865470     0.000666107250
      14        0.000032685704    -0.000025799338    -0.000017340627
      15        0.000032940878    -0.000007533913    -0.000021227853
      16       -0.000025024379     0.000033485526     0.000029293728
      17       -0.000013090051    -0.000002578830     0.000016003642
      18       -0.000026833639     0.000013252737     0.000012941823
      19       -0.000023833992     0.000011016475     0.000017955020
      20        0.000008457778    -0.000009373490    -0.000007203252
      21        0.000014138810    -0.000000089378    -0.000006701819
      22        0.000011935497    -0.000007127956    -0.000007897275
      23        0.001078842835     0.002564728962    -0.000462487437

  **** Optimization is complete! (in 6 steps) ****
    Final optimized geometry and variables:
    Molecular point group: c1

    Geometry (in Angstrom), charge = 1, multiplicity = 1:

    C           -1.264412848712     0.770150382704    -0.547669010318
    C           -0.312741559671     0.074196253148     1.548914741032
    C           -2.330032055754     1.333200373037     0.118817481628
    C           -1.373022433964     0.646144303975     2.221594299005
    C            1.277370450525    -0.009900986128    -1.811043792036
    C            1.608084766029    -1.530513587786    -0.000867371727
    C            2.335441964908    -0.585826342512    -2.466285233281
    C            2.662936931334    -2.083984777764    -0.680167546204
    C           -0.237723428541     0.126577457214     0.153710600574
    C            0.875883338926    -0.467153461186    -0.547758581898
    C           -2.393571948372     1.272051732232     1.509272844618
    N            2.998129312934    -1.601689726754    -1.888489782901
    O           -3.462769916336     1.839108563507     2.094177949665
    H           -1.255224331750     0.800518013916    -1.626562467476
    H            0.481765859103    -0.376658932590     2.123963808369
    H           -3.131570467938     1.817316096704    -0.416456825860
    H           -1.409897391245     0.610984928029     3.300603301237
    H            0.780957111454     0.823317114487    -2.279977862383
    H            1.337220952570    -1.954976679548     0.951553338307
    H            2.685193212022    -0.262309529511    -3.432482537192
    H            3.247176613219    -2.907416032740    -0.304570689595
    H            3.777089214157    -2.018675934813    -2.381122907312
    H           -3.312627135115     1.952656952799     3.039322720437

*** Psi4 exiting successfully. Buy a developer a beer!
