                               Psi4 1.1 release

  ==> Input File <==

--------------------------------------------------------------------------

memory 5 Gb

molecule phepyrOH_neutral {
  symmetry C1
  0 1
  C      1.885   -1.036   -0.112
  C      2.878   -1.652   2.002
  C      0.807   -0.463   0.561
  C      1.800   -1.079   2.676
  C      3.862   -2.773   -1.356
  C      5.298   -2.250   0.501
  C      4.965   -3.329   -1.983
  C      6.337   -2.829   -0.209
  C      2.921   -1.631   0.608
  C      4.040   -2.225   -0.090
  C      0.764   -0.484   1.955
  N      6.202   -3.372   -1.440
  O      -0.288   0.076   2.612
  H      1.904   -1.012   -1.199
  H      3.678   -2.112   2.578
  H      0.003   -0.001   -0.006
  H      1.772   -1.098   3.762
  H      2.895   -2.772   -1.850
  H      5.475   -1.833   1.487
  H      4.879   -3.768   -2.972
  H      7.337   -2.875   0.208
  H      -0.073   0.196   3.551
  units Angstrom
}

dih_string = "3 11 13 22 195"
set optking fixed_dihedral = $dih_string

optimize('MP2/aug-cc-PVTZ')
--------------------------------------------------------------------------

    Molecular point group: c1
  Charge       = 0
  Multiplicity = 1
  Basis Set: AUG-CC-PVTZ
    Blend: AUG-CC-PVTZ
  Basis Set: (AUG-CC-PVTZ AUX)
    Blend: AUG-CC-PVTZ-JKFIT
  @DF-RHF Final Energy:  -551.28516277912149
    Total Energy =                       -551.2851627791214923
  Basis Set: (AUG-CC-PVTZ AUX)
    Blend: AUG-CC-PVTZ-RI
    Molecular point group: c1
  Basis Set: AUG-CC-PVTZ
    Blend: AUG-CC-PVTZ
  Basis Set: (AUG-CC-PVTZ AUX)
    Blend: AUG-CC-PVTZ-JKFIT
  Basis Set: (AUG-CC-PVTZ AUX)
    Blend: AUG-CC-PVTZ-JKFIT
	 Reference Energy          =    -551.2851627791214923 [Eh]
	 Singles Energy            =      -0.0000000000000001 [Eh]
	 Same-Spin Energy          =      -0.6052292422991393 [Eh]
	 Opposite-Spin Energy      =      -1.8310337169489350 [Eh]
	 Correlation Energy        =      -2.4362629592480745 [Eh]
	 Total Energy              =    -553.7214257383695895 [Eh]
	 SCS Total Energy          =    -553.6841463202265459 [Eh]
  @DF-RHF Final Energy:  -551.29123118847860
    Total Energy =                       -551.2912311884786050
  @DF-RHF Final Energy:  -551.29269844159262
    Total Energy =                       -551.2926984415926199
  @DF-RHF Final Energy:  -551.29276114840502
    Total Energy =                       -551.2927611484050203
  @DF-RHF Final Energy:  -551.29286782448514
    Total Energy =                       -551.2928678244851426
  @DF-RHF Final Energy:  -551.29290598577256
    Total Energy =                       -551.2929059857725633
  @DF-RHF Final Energy:  -551.29290350337044
    Total Energy =                       -551.2929035033704395
  Charge       = 0
  Multiplicity = 1
  Basis Set: AUG-CC-PVTZ
    Blend: AUG-CC-PVTZ
  Basis Set: (AUG-CC-PVTZ AUX)
    Blend: AUG-CC-PVTZ-JKFIT

    Orbital Energies (a.u.)
    -----------------------

    Doubly Occupied:

       1A    -20.601311     2A    -15.559674     3A    -11.313170
       4A    -11.271113     5A    -11.271004     6A    -11.264714
       7A    -11.253114     8A    -11.250975     9A    -11.246394
      10A    -11.243961    11A    -11.237759    12A    -11.235075
      13A    -11.234858    14A     -1.418360    15A     -1.257302
      16A     -1.175643    17A     -1.105473    18A     -1.039215
      19A     -1.030134    20A     -1.013127    21A     -0.881984
      22A     -0.872433    23A     -0.843836    24A     -0.812825
      25A     -0.749423    26A     -0.726121    27A     -0.685141
      28A     -0.661996    29A     -0.655440    30A     -0.635942
      31A     -0.619162    32A     -0.606621    33A     -0.602675
      34A     -0.593171    35A     -0.575646    36A     -0.545121
      37A     -0.534008    38A     -0.522592    39A     -0.504953
      40A     -0.493602    41A     -0.416635    42A     -0.396584
      43A     -0.356600    44A     -0.347582    45A     -0.310527

  @DF-RHF Final Energy:  -551.29290680869485

   => Energetics <=

    Nuclear Repulsion Energy =            697.8595912878706713
    One-Electron Energy =               -2132.3590048870978535
    Two-Electron Energy =                 883.2065067905323303
    DFT Exchange-Correlation Energy =       0.0000000000000000
    Empirical Dispersion Energy =           0.0000000000000000
    PCM Polarization Energy =               0.0000000000000000
    EFP Energy =                            0.0000000000000000
    Total Energy =                       -551.2929068086948519
  Basis Set: (AUG-CC-PVTZ AUX)
    Blend: AUG-CC-PVTZ-RI
    Molecular point group: c1
  Basis Set: AUG-CC-PVTZ
    Blend: AUG-CC-PVTZ
  Basis Set: (AUG-CC-PVTZ AUX)
    Blend: AUG-CC-PVTZ-JKFIT
  Basis Set: (AUG-CC-PVTZ AUX)
    Blend: AUG-CC-PVTZ-JKFIT
	 Reference Energy          =    -551.2929068086948519 [Eh]
	 Singles Energy            =      -0.0000000000000001 [Eh]
	 Same-Spin Energy          =      -0.6040890167110943 [Eh]
	 Opposite-Spin Energy      =      -1.8283565955095893 [Eh]
	 Correlation Energy        =      -2.4324456122206835 [Eh]
	 Total Energy              =    -553.7253524209155557 [Eh]

	 ================> DF-SCS-MP2 Energies <==================
	-----------------------------------------------------------
	 SCS Same-Spin Scale       =       0.3333333333333333 [-]
	 SCS Opposite-Spin Scale   =       1.2000000000000000 [-]
	 SCS Same-Spin Energy      =      -0.2013630055703647 [Eh]
	 SCS Opposite-Spin Energy  =      -2.1940279146115071 [Eh]
	 SCS Correlation Energy    =      -2.3953909201818719 [Eh]
	 SCS Total Energy          =    -553.6882977288767052 [Eh]
	-----------------------------------------------------------

  -Total Gradient:
     Atom            X                  Y                   Z
    ------   -----------------  -----------------  -----------------
       1       -0.000013630209     0.000004023496     0.000021350962
       2       -0.000012778857     0.000004386562    -0.000006316120
       3        0.000687712114     0.001199033080     0.000078217833
       4       -0.000004194945    -0.000007000799    -0.000006114717
       5        0.000015679236     0.000017152619     0.000005565812
       6       -0.000008659382    -0.000021974393    -0.000009638578
       7        0.000011237711    -0.000095242085     0.000049049310
       8        0.000026814357     0.000081942485    -0.000074103688
       9        0.000092526167    -0.000045423524    -0.000051080957
      10       -0.000102317148     0.000052940190     0.000071974234
      11       -0.000859420520    -0.001349011920    -0.000165638994
      12       -0.000002564225    -0.000001345090     0.000003364384
      13       -0.000567109401    -0.001527262819     0.000381437256
      14       -0.000001051878    -0.000001296497     0.000016993274
      15       -0.000008549537     0.000009582725    -0.000011777536
      16        0.000008598591    -0.000013829753     0.000013908233
      17        0.000006809020     0.000004356035    -0.000015885906
      18        0.000017227917     0.000002782332    -0.000000241317
      19        0.000001525619    -0.000013161314    -0.000015136958
      20       -0.000004564281     0.000048633496    -0.000010696754
      21       -0.000022800333    -0.000035098667     0.000029444617
      22        0.000739509960     0.001685813836    -0.000304674389

  **** Optimization is complete! (in 8 steps) ****
    Final optimized geometry and variables:
    Molecular point group: c1

    Geometry (in Angstrom), charge = 0, multiplicity = 1:

    C           -1.242703728793     0.770881960328    -0.550459996447
    C           -0.308329497235     0.058932982776     1.532470101386
    C           -2.309902293264     1.345781339006     0.116026179202
    C           -1.379860644418     0.620969095686     2.207376367285
    C            0.746129720605    -1.086356281950    -1.810197755657
    C            2.190247979822    -0.479118289788    -0.033492594578
    C            1.843631546830    -1.642785365493    -2.447087162705
    C            3.227960924494    -1.062562318095    -0.742255129995
    C           -0.222841062420     0.119247330596     0.143321900631
    C            0.904098076573    -0.481765428823    -0.566204470361
    C           -2.384513450817     1.266998982017     1.499620934936
    N            3.076879626166    -1.641644473668    -1.935679847082
    O           -3.464721256589     1.839083885805     2.102641840214
    H           -1.183483555784     0.859485532095    -1.625027717872
    H            0.452838527604    -0.463197097461     2.092846303410
    H           -3.088390089239     1.865723270211    -0.420106958857
    H           -1.440133438952     0.546741724011     3.284212458048
    H           -0.228776057611    -1.146687756547    -2.269902961821
    H            2.389246873602    -0.003783210485     0.915145148995
    H            1.726321941185    -2.117981211276    -3.411072508439
    H            4.229825540989    -1.059235066461    -0.335898872227
    H           -3.288936628883     1.925146436665     3.044303075430

*** Psi4 exiting successfully. Buy a developer a beer!
