                               Psi4 1.1 release

  ==> Input File <==

--------------------------------------------------------------------------

memory 1000 mb

molecule butane {
  symmetry C1
  0 1
  H      1.604   0.760   -8.260
  H      1.745   2.388   -8.880
  H      2.043   1.024   -9.930
  C      2.142   1.395   -8.932
  H      4.169   2.051   -9.210
  H      3.731   1.788   -7.539
  C      3.631   1.416   -8.537
  H      3.665   -0.647   -7.940
  H      4.104   -0.384   -9.610
  C      4.203   -0.012   -8.612
  H      5.984   1.011   -7.983
  H      6.281   -0.353   -9.033
  H      5.843   -0.616   -7.363
  C      5.691   0.009   -8.218
  units Angstrom
}

dih_string = "7 10 14 13 120"
set optking fixed_dihedral = $dih_string

optimize('MP2/aug-cc-pvtz')
--------------------------------------------------------------------------

    Molecular point group: c1
  Charge       = 0
  Multiplicity = 1
  Basis Set: AUG-CC-PVTZ
    Blend: AUG-CC-PVTZ
  Basis Set: (AUG-CC-PVTZ AUX)
    Blend: AUG-CC-PVTZ-JKFIT
  @DF-RHF Final Energy:  -157.34716134241097
    Total Energy =                       -157.3471613424109705
  Basis Set: (AUG-CC-PVTZ AUX)
    Blend: AUG-CC-PVTZ-RI
    Molecular point group: c1
  Basis Set: AUG-CC-PVTZ
    Blend: AUG-CC-PVTZ
  Basis Set: (AUG-CC-PVTZ AUX)
    Blend: AUG-CC-PVTZ-JKFIT
  Basis Set: (AUG-CC-PVTZ AUX)
    Blend: AUG-CC-PVTZ-JKFIT
	 Reference Energy          =    -157.3471613424109705 [Eh]
	 Singles Energy            =      -0.0000000000000001 [Eh]
	 Same-Spin Energy          =      -0.1654869384846968 [Eh]
	 Opposite-Spin Energy      =      -0.6394829758187520 [Eh]
	 Correlation Energy        =      -0.8049699143034489 [Eh]
	 Total Energy              =    -158.1521312567144264 [Eh]
	 SCS Total Energy          =    -158.1697032262217135 [Eh]
  @DF-RHF Final Energy:  -157.35010909397056
    Total Energy =                       -157.3501090939705591
  @DF-RHF Final Energy:  -157.35102016508631
    Total Energy =                       -157.3510201650863110
  @DF-RHF Final Energy:  -157.35129686087797
    Total Energy =                       -157.3512968608779659
  Charge       = 0
  Multiplicity = 1
  Basis Set: AUG-CC-PVTZ
    Blend: AUG-CC-PVTZ
  Basis Set: (AUG-CC-PVTZ AUX)
    Blend: AUG-CC-PVTZ-JKFIT

    Orbital Energies (a.u.)
    -----------------------

    Doubly Occupied:

       1A    -11.211691     2A    -11.210887     3A    -11.205887
       4A    -11.205521     5A     -1.072604     6A     -0.980137
       7A     -0.862040     8A     -0.788952     9A     -0.638683
      10A     -0.583467    11A     -0.577756    12A     -0.569563
      13A     -0.511138    14A     -0.497084    15A     -0.470374
      16A     -0.456580    17A     -0.456067

  @DF-RHF Final Energy:  -157.35127465549169

   => Energetics <=

    Nuclear Repulsion Energy =            131.2697677483790528
    One-Electron Energy =                -470.6452227045418795
    Two-Electron Energy =                 182.0241803006711052
    DFT Exchange-Correlation Energy =       0.0000000000000000
    Empirical Dispersion Energy =           0.0000000000000000
    PCM Polarization Energy =               0.0000000000000000
    EFP Energy =                            0.0000000000000000
    Total Energy =                       -157.3512746554916930
  Basis Set: (AUG-CC-PVTZ AUX)
    Blend: AUG-CC-PVTZ-RI
    Molecular point group: c1
  Basis Set: AUG-CC-PVTZ
    Blend: AUG-CC-PVTZ
  Basis Set: (AUG-CC-PVTZ AUX)
    Blend: AUG-CC-PVTZ-JKFIT
  Basis Set: (AUG-CC-PVTZ AUX)
    Blend: AUG-CC-PVTZ-JKFIT
	 Reference Energy          =    -157.3512746554916930 [Eh]
	 Singles Energy            =      -0.0000000000000000 [Eh]
	 Same-Spin Energy          =      -0.1654445842850565 [Eh]
	 Opposite-Spin Energy      =      -0.6398946920602622 [Eh]
	 Correlation Energy        =      -0.8053392763453187 [Eh]
	 Total Energy              =    -158.1566139318370006 [Eh]

	 ================> DF-SCS-MP2 Energies <==================
	-----------------------------------------------------------
	 SCS Same-Spin Scale       =       0.3333333333333333 [-]
	 SCS Opposite-Spin Scale   =       1.2000000000000000 [-]
	 SCS Same-Spin Energy      =      -0.0551481947616855 [Eh]
	 SCS Opposite-Spin Energy  =      -0.7678736304723146 [Eh]
	 SCS Correlation Energy    =      -0.8230218252340001 [Eh]
	 SCS Total Energy          =    -158.1742964807257010 [Eh]
	-----------------------------------------------------------

  -Total Gradient:
     Atom            X                  Y                   Z
    ------   -----------------  -----------------  -----------------
       1       -0.000049383096    -0.000036968944     0.000034972181
       2       -0.000026572556     0.000058163658     0.000001732466
       3       -0.000022984507    -0.000023536808    -0.000067792352
       4        0.000178515279    -0.000026932743     0.000047799732
       5        0.000017841363     0.000006261164    -0.000031735939
       6       -0.000001670322     0.000004870920     0.000038532398
       7       -0.000042587573    -0.000022485968     0.000013113468
       8        0.000012681130    -0.000012501199     0.000022977809
       9        0.000017827007     0.000021031300    -0.000039178862
      10       -0.000071016942     0.000008795242    -0.000027525639
      11        0.000005349777     0.000034694573    -0.000011374512
      12        0.000031619784    -0.000058970977    -0.000049211082
      13       -0.000003056289    -0.000031398893     0.000056972532
      14       -0.000046563056     0.000078978677     0.000010717801

  **** Optimization is complete! (in 5 steps) ****
    Final optimized geometry and variables:
    Molecular point group: c1

    Geometry (in Angstrom), charge = 0, multiplicity = 1:

    H           -2.353336705659     0.050851492773     0.309267464712
    H           -2.208999464288     1.690728780978    -0.314374179249
    H           -1.911809259440     0.315061565845    -1.371817108806
    C           -1.780744466280     0.691982154846    -0.358863899636
    H            0.242605648603     1.356940781097    -0.637143999681
    H           -0.196461101925     1.094400083552     1.034582552746
    C           -0.314386281521     0.693657732787     0.026541645061
    H           -0.258447810118    -1.350061351267     0.631419723198
    H            0.178284399122    -1.088762786757    -1.034581610560
    C            0.305850360346    -0.690476995048    -0.027926355554
    H            2.123070937834     0.309460057710     0.611611880691
    H            2.418036164166    -1.052602667652    -0.450385855711
    H            1.978990693057    -1.325714464091     1.224350520205
    C            1.788278147339    -0.695188213532     0.360002584288

*** Psi4 exiting successfully. Buy a developer a beer!
