                               Psi4 1.1 release

  ==> Input File <==

--------------------------------------------------------------------------

memory 5000 mb

molecule butane {
  symmetry C1
  0 1
  H      1.570   1.915   -8.193
  H      2.018   1.874   -9.881
  H      1.805   0.382   -8.998
  C      2.142   1.395   -8.932
  H      4.169   2.051   -9.210
  H      3.731   1.788   -7.539
  C      3.631   1.416   -8.537
  H      3.665   -0.647   -7.940
  H      4.104   -0.384   -9.610
  C      4.203   -0.012   -8.612
  H      6.088   -0.983   -8.270
  H      5.791   0.381   -7.220
  H      6.230   0.644   -8.890
  C      5.691   0.009   -8.218
  units Angstrom
}

dih_string = "10 7 4 3 10"
set optking fixed_dihedral = $dih_string

optimize('MP2/aug-cc-pvtz')
--------------------------------------------------------------------------

    Molecular point group: c1
  Charge       = 0
  Multiplicity = 1
  Basis Set: AUG-CC-PVTZ
    Blend: AUG-CC-PVTZ
  Basis Set: (AUG-CC-PVTZ AUX)
    Blend: AUG-CC-PVTZ-JKFIT
  @DF-RHF Final Energy:  -157.34756416930787
    Total Energy =                       -157.3475641693078728
  Basis Set: (AUG-CC-PVTZ AUX)
    Blend: AUG-CC-PVTZ-RI
    Molecular point group: c1
  Basis Set: AUG-CC-PVTZ
    Blend: AUG-CC-PVTZ
  Basis Set: (AUG-CC-PVTZ AUX)
    Blend: AUG-CC-PVTZ-JKFIT
  Basis Set: (AUG-CC-PVTZ AUX)
    Blend: AUG-CC-PVTZ-JKFIT
	 Reference Energy          =    -157.3475641693078728 [Eh]
	 Singles Energy            =      -0.0000000000000001 [Eh]
	 Same-Spin Energy          =      -0.1654798088783491 [Eh]
	 Opposite-Spin Energy      =      -0.6394452744069354 [Eh]
	 Correlation Energy        =      -0.8049250832852847 [Eh]
	 Total Energy              =    -158.1524892525931705 [Eh]
	 SCS Total Energy          =    -158.1700584348889720 [Eh]
  @DF-RHF Final Energy:  -157.35047259760830
    Total Energy =                       -157.3504725976083023
  @DF-RHF Final Energy:  -157.35137580271498
    Total Energy =                       -157.3513758027149834
  @DF-RHF Final Energy:  -157.35167433780887
    Total Energy =                       -157.3516743378088734
  @DF-RHF Final Energy:  -157.35166460753777
    Total Energy =                       -157.3516646075377707
  Charge       = 0
  Multiplicity = 1
  Basis Set: AUG-CC-PVTZ
    Blend: AUG-CC-PVTZ
  Basis Set: (AUG-CC-PVTZ AUX)
    Blend: AUG-CC-PVTZ-JKFIT

    Orbital Energies (a.u.)
    -----------------------

    Doubly Occupied:

       1A    -11.211677     2A    -11.210867     3A    -11.205877
       4A    -11.205520     5A     -1.072769     6A     -0.980352
       7A     -0.861983     8A     -0.788943     9A     -0.638796
      10A     -0.583905    11A     -0.577858    12A     -0.569236
      13A     -0.511660    14A     -0.496594    15A     -0.470458
      16A     -0.457065    17A     -0.455987

  @DF-RHF Final Energy:  -157.35167205822671

   => Energetics <=

    Nuclear Repulsion Energy =            131.2978176815128109
    One-Electron Energy =                -470.6998852986170050
    Two-Electron Energy =                 182.0503955588774829
    DFT Exchange-Correlation Energy =       0.0000000000000000
    Empirical Dispersion Energy =           0.0000000000000000
    PCM Polarization Energy =               0.0000000000000000
    EFP Energy =                            0.0000000000000000
    Total Energy =                       -157.3516720582267112
  Basis Set: (AUG-CC-PVTZ AUX)
    Blend: AUG-CC-PVTZ-RI
    Molecular point group: c1
  Basis Set: AUG-CC-PVTZ
    Blend: AUG-CC-PVTZ
  Basis Set: (AUG-CC-PVTZ AUX)
    Blend: AUG-CC-PVTZ-JKFIT
  Basis Set: (AUG-CC-PVTZ AUX)
    Blend: AUG-CC-PVTZ-JKFIT
	 Reference Energy          =    -157.3516720582267112 [Eh]
	 Singles Energy            =      -0.0000000000000001 [Eh]
	 Same-Spin Energy          =      -0.1654503350610406 [Eh]
	 Opposite-Spin Energy      =      -0.6398491674122556 [Eh]
	 Correlation Energy        =      -0.8052995024732964 [Eh]
	 Total Energy              =    -158.1569715607000148 [Eh]

	 ================> DF-SCS-MP2 Energies <==================
	-----------------------------------------------------------
	 SCS Same-Spin Scale       =       0.3333333333333333 [-]
	 SCS Opposite-Spin Scale   =       1.2000000000000000 [-]
	 SCS Same-Spin Energy      =      -0.0551501116870135 [Eh]
	 SCS Opposite-Spin Energy  =      -0.7678190008947067 [Eh]
	 SCS Correlation Energy    =      -0.8229691125817203 [Eh]
	 SCS Total Energy          =    -158.1746411708084281 [Eh]
	-----------------------------------------------------------

  -Total Gradient:
     Atom            X                  Y                   Z
    ------   -----------------  -----------------  -----------------
       1       -0.000007586865    -0.000021670425     0.000008568227
       2        0.000008753298    -0.000000492194     0.000039386836
       3        0.000510067304    -0.000029441519    -0.001889320787
       4       -0.000760899077    -0.000027611725     0.002858148978
       5        0.000011849824    -0.000013726131     0.000006874425
       6        0.000002207715     0.000016716259    -0.000030506026
       7        0.000606393120     0.000292872634    -0.002363729116
       8        0.000004481519    -0.000006082502    -0.000020716128
       9       -0.000014222905     0.000005012109     0.000015357476
      10       -0.000343866329    -0.000214337683     0.001366474980
      11       -0.000002547871     0.000016047787     0.000004491087
      12        0.000006721891    -0.000003776305    -0.000016841497
      13       -0.000007493848    -0.000007480118     0.000009516226
      14       -0.000013857778    -0.000006030185     0.000012295322

  **** Optimization is complete! (in 6 steps) ****
    Final optimized geometry and variables:
    Molecular point group: c1

    Geometry (in Angstrom), charge = 0, multiplicity = 1:

    H           -2.398063854374     1.239942356649     0.356330239201
    H           -1.933181416477     1.164577774867    -1.332355028042
    H           -2.169000371724    -0.314384984595    -0.437012786012
    C           -1.784761882146     0.701038278533    -0.360177221145
    H            0.263597017223     1.360412506324    -0.610229404609
    H           -0.186643788911     1.073892444400     1.048184600720
    C           -0.305561615911     0.690783668658     0.034312221934
    H           -0.243365377954    -1.352733894333     0.647565417630
    H            0.183736513857    -1.100653657431    -1.028584748239
    C            0.310738265255    -0.694930317093    -0.023414092151
    H            2.203114049305    -1.697901191703     0.313018684944
    H            1.920602347021    -0.310124081338     1.358350467225
    H            2.350893312908    -0.065401518985    -0.328411710356
    C            1.780283283420    -0.696692228041     0.350383018183

*** Psi4 exiting successfully. Buy a developer a beer!
