                              Psi4 1.0.0 Driver

  ==> Input File <==

--------------------------------------------------------------------------

memory 1000 mb

molecule butane {
  symmetry C1
  0 1
  H      1.604   0.760   -8.260
  H      1.745   2.388   -8.880
  H      2.043   1.024   -9.930
  C      2.142   1.395   -8.932
  H      4.169   2.051   -9.210
  H      3.731   1.788   -7.539
  C      3.631   1.416   -8.537
  H      3.492   -0.656   -9.084
  H      5.109   -0.004   -9.180
  C      4.203   -0.012   -8.612
  H      4.892   -1.516   -7.242
  H      3.589   -0.533   -6.621
  H      5.206   0.120   -6.717
  C      4.495   -0.524   -7.190
  units Angstrom
}

dih_string = "4 7 10 14 250"
set optking fixed_dihedral = $dih_string

optimize('B3LYP/cc-PVDZ')
--------------------------------------------------------------------------

    Molecular point group: c1
  Charge       = 0
  Multiplicity = 1
  Basis Set: CC-PVDZ
   => B3LYP Composite Functional <=
  Basis Set:
  @DF-RKS Final Energy:  -158.44386836132682
    Total Energy =                       -158.4438683613268211
    Molecular point group: c1
  Basis Set: CC-PVDZ
  Basis Set:
   => B3LYP Composite Functional <=
  Basis Set: CC-PVDZ
   => B3LYP Composite Functional <=
  Basis Set:
  @DF-RKS Final Energy:  -158.44981449422050
    Total Energy =                       -158.4498144942205045
  Basis Set: CC-PVDZ
  Basis Set:
   => B3LYP Composite Functional <=
  Basis Set: CC-PVDZ
   => B3LYP Composite Functional <=
  Basis Set:
  @DF-RKS Final Energy:  -158.45261064841975
    Total Energy =                       -158.4526106484197499
  Basis Set: CC-PVDZ
  Basis Set:
  @DF-RKS Final Energy:  -158.45348621057320
    Total Energy =                       -158.4534862105732032
   => B3LYP Composite Functional <=
  Basis Set:
  @DF-RKS Final Energy:  -158.45369524768125
    Total Energy =                       -158.4536952476812530
  Basis Set: CC-PVDZ
  Basis Set:
   => B3LYP Composite Functional <=
  Basis Set: CC-PVDZ
   => B3LYP Composite Functional <=
  Basis Set:
  @DF-RKS Final Energy:  -158.45370733257238
    Total Energy =                       -158.4537073325723782
  Basis Set: CC-PVDZ
  Basis Set:
   => B3LYP Composite Functional <=
  Charge       = 0
  Multiplicity = 1
  Basis Set: CC-PVDZ
   => B3LYP Composite Functional <=
  Basis Set:

    Orbital Energies (a.u.)
    -----------------------

    Doubly Occupied:

       1A    -10.179983     2A    -10.179829     3A    -10.176213
       4A    -10.176208     5A     -0.788456     6A     -0.719348
       7A     -0.629285     8A     -0.570113     9A     -0.455006
      10A     -0.437602    11A     -0.417801    12A     -0.390792
      13A     -0.364506    14A     -0.360955    15A     -0.326964
      16A     -0.319459    17A     -0.313960

  @DF-RKS Final Energy:  -158.45370661505507

   => Energetics <=

    Nuclear Repulsion Energy =            130.3415262257914264
    One-Electron Energy =                -469.1806174163974106
    Two-Electron Energy =                 200.9670063992352880
    DFT Exchange-Correlation Energy =     -20.5816218236843582
    Empirical Dispersion Energy =           0.0000000000000000
    PCM Polarization Energy =               0.0000000000000000
    EFP Energy =                            0.0000000000000000
    Total Energy =                       -158.4537066150550686
    Molecular point group: c1
  Basis Set: CC-PVDZ
  Basis Set:
   => B3LYP Composite Functional <=

  -Total Gradient:
     Atom            X                  Y                   Z
    ------   -----------------  -----------------  -----------------
       1       -0.000002415902    -0.000001975365     0.000009401771
       2       -0.000009862481     0.000011752089    -0.000004352588
       3       -0.000015453661    -0.000005316653    -0.000010526272
       4        0.000439165217     0.000156293326    -0.001427263593
       5       -0.000006497537    -0.000004659649     0.000008802725
       6        0.000009320856     0.000001835234     0.000007999795
       7       -0.000045197177     0.000055038911     0.001953390720
       8       -0.000006245854    -0.000000562447    -0.000011144549
       9       -0.000010224234    -0.000002627201     0.000005513129
      10       -0.001710720039    -0.000835828172    -0.000443551576
      11        0.000009409577    -0.000012520020     0.000005241084
      12       -0.000009296154    -0.000003229357     0.000000249147
      13        0.000006357592     0.000001051266     0.000018211015
      14        0.001352943527     0.000641322428    -0.000113075508

  **** Optimization is complete! (in 7 steps) ****
    Final optimized geometry and variables:
    Molecular point group: c1

    Geometry (in Angstrom), charge = 0, multiplicity = 1:

    H           -2.100249554069     0.204699771809    -0.001731853352
    H           -1.926427950398     1.852682186402    -0.651040346767
    H           -1.624162155537     0.445004063678    -1.698471153015
    C           -1.496424670969     0.837668570906    -0.675265001146
    H            0.536771018361     1.495074788520    -0.956692831470
    H            0.084865944289     1.301217726876     0.732250637437
    C           -0.020272642636     0.838697592554    -0.265631293471
    H           -0.049942673795    -1.285684911535    -0.762292048409
    H            1.553002800843    -0.565460960919    -0.840873798121
    C            0.620239233209    -0.571810018392    -0.250444815033
    H            1.366759449730    -2.101645113223     1.132471439068
    H            0.028076533933    -1.126496711854     1.784146164205
    H            1.660035294332    -0.429028053282     1.667608440927
    C            0.936037997503    -1.086949675780     1.157295549639

*** Psi4 exiting successfully. Buy a developer a beer!
