                              Psi4 1.0.0 Driver

  ==> Input File <==

--------------------------------------------------------------------------

memory 1000 mb

molecule butane {
  symmetry C1
  0 1
  H      1.604   0.760   -8.260
  H      1.745   2.388   -8.880
  H      2.043   1.024   -9.930
  C      2.142   1.395   -8.932
  H      4.169   2.051   -9.210
  H      3.731   1.788   -7.539
  C      3.631   1.416   -8.537
  H      4.720   -0.237   -7.703
  H      3.404   -0.710   -8.749
  C      4.203   -0.012   -8.612
  H      5.578   -1.104   -9.849
  H      5.980   0.585   -9.661
  H      4.664   0.112   -10.707
  C      5.180   -0.113   -9.797
  units Angstrom
}

dih_string = "4 7 10 14 110"
set optking fixed_dihedral = $dih_string

optimize('B3LYP/cc-PVDZ')
--------------------------------------------------------------------------

    Molecular point group: c1
  Charge       = 0
  Multiplicity = 1
  Basis Set: CC-PVDZ
   => B3LYP Composite Functional <=
  Basis Set:
  @DF-RKS Final Energy:  -158.44394088815193
    Total Energy =                       -158.4439408881519284
    Molecular point group: c1
  Basis Set: CC-PVDZ
  Basis Set:
   => B3LYP Composite Functional <=
  Basis Set: CC-PVDZ
   => B3LYP Composite Functional <=
  Basis Set:
  @DF-RKS Final Energy:  -158.44985919187872
    Total Energy =                       -158.4498591918787156
  Basis Set: CC-PVDZ
  Basis Set:
   => B3LYP Composite Functional <=
  Basis Set: CC-PVDZ
   => B3LYP Composite Functional <=
  Basis Set:
  @DF-RKS Final Energy:  -158.45263037410115
    Total Energy =                       -158.4526303741011475
  Basis Set: CC-PVDZ
  Basis Set:
  @DF-RKS Final Energy:  -158.45349115900888
    Total Energy =                       -158.4534911590088768
   => B3LYP Composite Functional <=
  Basis Set:
  @DF-RKS Final Energy:  -158.45369479988591
    Total Energy =                       -158.4536947998859091
  Basis Set: CC-PVDZ
  Basis Set:
   => B3LYP Composite Functional <=
  Basis Set: CC-PVDZ
   => B3LYP Composite Functional <=
  Basis Set:
  @DF-RKS Final Energy:  -158.45370693652757
    Total Energy =                       -158.4537069365275670
  Basis Set: CC-PVDZ
  Basis Set:
   => B3LYP Composite Functional <=
  Charge       = 0
  Multiplicity = 1
  Basis Set: CC-PVDZ
   => B3LYP Composite Functional <=
  Basis Set:

    Orbital Energies (a.u.)
    -----------------------

    Doubly Occupied:

       1A    -10.179982     2A    -10.179828     3A    -10.176212
       4A    -10.176207     5A     -0.788458     6A     -0.719349
       7A     -0.629286     8A     -0.570114     9A     -0.455008
      10A     -0.437599    11A     -0.417803    12A     -0.390794
      13A     -0.364505    14A     -0.360957    15A     -0.326961
      16A     -0.319460    17A     -0.313961

  @DF-RKS Final Energy:  -158.45370641065205

   => Energetics <=

    Nuclear Repulsion Energy =            130.3418266771589344
    One-Electron Energy =                -469.1812045885362750
    Two-Electron Energy =                 200.9673035514370270
    DFT Exchange-Correlation Energy =     -20.5816320507117183
    Empirical Dispersion Energy =           0.0000000000000000
    PCM Polarization Energy =               0.0000000000000000
    EFP Energy =                            0.0000000000000000
    Total Energy =                       -158.4537064106520461
    Molecular point group: c1
  Basis Set: CC-PVDZ
  Basis Set:
   => B3LYP Composite Functional <=

  -Total Gradient:
     Atom            X                  Y                   Z
    ------   -----------------  -----------------  -----------------
       1       -0.000017606404    -0.000005849581    -0.000001456502
       2       -0.000010636510     0.000009213870     0.000002365984
       3        0.000003611394     0.000001066965    -0.000007890781
       4       -0.000314358492    -0.000295265700     0.001435789087
       5        0.000010746102     0.000003967002    -0.000001565834
       6        0.000001243523    -0.000000912085    -0.000013071986
       7        0.000892398444     0.000613675291    -0.001620696441
       8       -0.000008558446    -0.000000892791    -0.000009754786
       9       -0.000009644941    -0.000003661470     0.000005635535
      10       -0.001640311689    -0.000790515806    -0.000695771143
      11        0.000010662780    -0.000009933939    -0.000003065613
      12        0.000012821398     0.000004277053    -0.000011911209
      13       -0.000007302854    -0.000002387729    -0.000003290249
      14        0.001077485649     0.000477348362     0.000926386256

  **** Optimization is complete! (in 7 steps) ****
    Final optimized geometry and variables:
    Molecular point group: c1

    Geometry (in Angstrom), charge = 0, multiplicity = 1:

    H           -2.269026336451     0.056968928284     0.754398879157
    H           -2.137213829617     1.725656227754     0.147662596425
    H           -1.851422498138     0.353219843980    -0.948878903284
    C           -1.695755279242     0.717443165899     0.081656807803
    H            0.326679913868     1.446909005633    -0.190368871385
    H           -0.104672538087     1.110381146118     1.481447349925
    C           -0.209315847928     0.725347513661     0.452131777177
    H            0.995882762774    -0.899598678502     1.279660067168
    H           -0.311832964837    -1.443396522421     0.236372020801
    C            0.465172249184    -0.664834256415     0.340551947812
    H            1.898514009558    -1.782113450965    -0.887182121309
    H            2.284364330369    -0.053347521905    -0.706883425965
    H            0.967730492373    -0.562220865129    -1.788937692440
    C            1.456779666609    -0.773963597816    -0.822041963839

*** Psi4 exiting successfully. Buy a developer a beer!
