                               Psi4 1.1 release

  ==> Input File <==

--------------------------------------------------------------------------

memory 5 Gb

molecule phepyrFOH_cation {
  symmetry C1
  1 1
  C      1.885   -1.036   -0.112
  C      0.807   -0.463   0.561
  C      4.077   -2.202   -1.486
  C      5.074   -2.820   0.619
  C      1.800   -1.079   2.676
  C      5.160   -2.780   -2.133
  C      6.132   -3.382   -0.082
  C      2.921   -1.631   0.608
  C      4.038   -2.225   -0.095
  C      0.764   -0.484   1.955
  C      2.878   -1.652   2.002
  N      6.144   -3.346   -1.421
  O      -0.289   0.076   2.612
  F      3.866   -2.220   2.709
  H      1.904   -1.012   -1.199
  H      0.002   -0.002   -0.006
  H      3.283   -1.745   -2.068
  H      5.069   -2.852   1.704
  H      1.772   -1.099   3.762
  H      5.274   -2.808   -3.208
  H      6.978   -3.864   0.388
  H      6.930   -3.766   -1.917
  H      -0.175   -0.018   3.571
  units Angstrom
}

dih_string = "1 8 9 3 0.001"
set optking fixed_dihedral = $dih_string

optimize('MP2/aug-cc-PVTZ')
--------------------------------------------------------------------------

    Molecular point group: c1
  Charge       = 1
  Multiplicity = 1
  Basis Set: AUG-CC-PVTZ
    Blend: AUG-CC-PVTZ
  Basis Set: (AUG-CC-PVTZ AUX)
    Blend: AUG-CC-PVTZ-JKFIT
  @DF-RHF Final Energy:  -650.54857672526509
    Total Energy =                       -650.5485767252650930
  Basis Set: (AUG-CC-PVTZ AUX)
    Blend: AUG-CC-PVTZ-RI
    Molecular point group: c1
  Basis Set: AUG-CC-PVTZ
    Blend: AUG-CC-PVTZ
  Basis Set: (AUG-CC-PVTZ AUX)
    Blend: AUG-CC-PVTZ-JKFIT
  Basis Set: (AUG-CC-PVTZ AUX)
    Blend: AUG-CC-PVTZ-JKFIT
	 Reference Energy          =    -650.5485767252650930 [Eh]
	 Singles Energy            =      -0.0000000000000001 [Eh]
	 Same-Spin Energy          =      -0.6713211971671447 [Eh]
	 Opposite-Spin Energy      =      -2.0175619318780549 [Eh]
	 Correlation Energy        =      -2.6888831290451995 [Eh]
	 Total Energy              =    -653.2374598543102593 [Eh]
	 SCS Total Energy          =    -653.1934247759078289 [Eh]
  @DF-RHF Final Energy:  -650.55786630723117
    Total Energy =                       -650.5578663072312793
  @DF-RHF Final Energy:  -650.56321838548422
    Total Energy =                       -650.5632183854841060
  @DF-RHF Final Energy:  -650.56587126177419
    Total Energy =                       -650.5658712617741912
  @DF-RHF Final Energy:  -650.56704807067888
    Total Energy =                       -650.5670480706789931
  @DF-RHF Final Energy:  -650.56758032082053
    Total Energy =                       -650.5675803208205252
  @DF-RHF Final Energy:  -650.56781451136169
    Total Energy =                       -650.5678145113615756
  Charge       = 1
  Multiplicity = 1
  Basis Set: AUG-CC-PVTZ
    Blend: AUG-CC-PVTZ
  Basis Set: (AUG-CC-PVTZ AUX)
    Blend: AUG-CC-PVTZ-JKFIT

    Orbital Energies (a.u.)
    -----------------------

    Doubly Occupied:

       1A    -26.450934     2A    -20.722824     3A    -15.824420
       4A    -11.481099     5A    -11.476129     6A    -11.475117
       7A    -11.456248     8A    -11.453510     9A    -11.408907
      10A    -11.402566    11A    -11.390423    12A    -11.387099
      13A    -11.364146    14A    -11.355607    15A     -1.771904
      16A     -1.546777    17A     -1.504295    18A     -1.322594
      19A     -1.276262    20A     -1.233969    21A     -1.172377
      22A     -1.164177    23A     -1.066197    24A     -1.060748
      25A     -0.999798    26A     -0.977977    27A     -0.958092
      28A     -0.906509    29A     -0.874928    30A     -0.867392
      31A     -0.852095    32A     -0.835696    33A     -0.824346
      34A     -0.805621    35A     -0.784036    36A     -0.773247
      37A     -0.770494    38A     -0.756256    39A     -0.725593
      40A     -0.725054    41A     -0.710103    42A     -0.691447
      43A     -0.667032    44A     -0.649162    45A     -0.644959
      46A     -0.574208    47A     -0.535689    48A     -0.482014
      49A     -0.447270

  @DF-RHF Final Energy:  -650.56784749020676

   => Energetics <=

    Nuclear Repulsion Energy =            829.5446031088226846
    One-Electron Energy =               -2519.0102063520130287
    Two-Electron Energy =                1038.8977557529835849
    DFT Exchange-Correlation Energy =       0.0000000000000000
    Empirical Dispersion Energy =           0.0000000000000000
    PCM Polarization Energy =               0.0000000000000000
    EFP Energy =                            0.0000000000000000
    Total Energy =                       -650.5678474902067592
  Basis Set: (AUG-CC-PVTZ AUX)
    Blend: AUG-CC-PVTZ-RI
    Molecular point group: c1
  Basis Set: AUG-CC-PVTZ
    Blend: AUG-CC-PVTZ
  Basis Set: (AUG-CC-PVTZ AUX)
    Blend: AUG-CC-PVTZ-JKFIT
  Basis Set: (AUG-CC-PVTZ AUX)
    Blend: AUG-CC-PVTZ-JKFIT
	 Reference Energy          =    -650.5678474902067592 [Eh]
	 Singles Energy            =      -0.0000000000000003 [Eh]
	 Same-Spin Energy          =      -0.6687330105209029 [Eh]
	 Opposite-Spin Energy      =      -2.0133151568293304 [Eh]
	 Correlation Energy        =      -2.6820481673502337 [Eh]
	 Total Energy              =    -653.2498956575569764 [Eh]

	 ================> DF-SCS-MP2 Energies <==================
	-----------------------------------------------------------
	 SCS Same-Spin Scale       =       0.3333333333333333 [-]
	 SCS Opposite-Spin Scale   =       1.2000000000000000 [-]
	 SCS Same-Spin Energy      =      -0.2229110035069676 [Eh]
	 SCS Opposite-Spin Energy  =      -2.4159781881951963 [Eh]
	 SCS Correlation Energy    =      -2.6388891917021642 [Eh]
	 SCS Total Energy          =    -653.2067366819089784 [Eh]
	-----------------------------------------------------------

  -Total Gradient:
     Atom            X                  Y                   Z
    ------   -----------------  -----------------  -----------------
       1        0.000047925914    -0.000025709524    -0.000055578903
       2        0.000071973548    -0.000038235115    -0.000015203758
       3       -0.000024331966     0.000014287023    -0.000005928265
       4       -0.000146971631     0.000081492361     0.000044453020
       5       -0.000086671175     0.000045399819     0.000105284519
       6       -0.000037319537     0.000021101981    -0.000018915246
       7        0.000050960332    -0.000023090825    -0.000153267463
       8        0.000023042798    -0.000010370795    -0.000035226009
       9        0.000035994000    -0.000029236886     0.000197052753
      10        0.000026176401    -0.000015854150    -0.000015266143
      11       -0.000080357975     0.000049361061    -0.000218650297
      12        0.000045201763    -0.000028412801     0.000099214337
      13       -0.000053236892     0.000029338057     0.000002770901
      14        0.000150947246    -0.000085243127     0.000089539042
      15        0.000035495224    -0.000016479449    -0.000073428656
      16       -0.000038780880     0.000020777449     0.000020895098
      17       -0.000074692672     0.000041840081    -0.000005339413
      18        0.000021496993    -0.000012123926    -0.000004975128
      19        0.000025736641    -0.000013963150     0.000002182246
      20       -0.000004832094     0.000002860230    -0.000003997235
      21       -0.000006633401     0.000002538035     0.000032909338
      22        0.000017633357    -0.000009144190    -0.000011254703
      23        0.000001243998    -0.000001132155     0.000022729976

  **** Optimization is complete! (in 8 steps) ****
    Final optimized geometry and variables:
    Molecular point group: c1

    Geometry (in Angstrom), charge = 1, multiplicity = 1:

    C           -1.328589352950     0.756850250214    -0.733907992510
    C           -2.405177146079     1.331045771917    -0.105844269466
    C            0.895376373581    -0.425502014834    -2.147669016108
    C            1.935203066124    -1.064912351535    -0.104888716714
    C           -1.459969783866     0.741274713026     2.019553608390
    C            1.940122362532    -0.980052396998    -2.838666320900
    C            2.966313164568    -1.610928901458    -0.827366009273
    C           -0.269274988042     0.149675026290    -0.033570605316
    C            0.846169779634    -0.443372497196    -0.742124257460
    C           -2.481214392372     1.328460440912     1.286513960513
    C           -0.394975594823     0.174474994793     1.360072697388
    N            2.948978838459    -1.558443915905    -2.167044677207
    O           -3.555611050947     1.903801250950     1.841109586462
    F            0.552642795342    -0.373576445296     2.140840186395
    H           -1.319380329975     0.786193179609    -1.809365103726
    H           -3.200183075727     1.788059889721    -0.673198183842
    H            0.114978548217     0.024064060082    -2.734140745179
    H            1.992534294236    -1.130803728432     0.963855433807
    H           -1.471669737689     0.713233289767     3.098334443713
    H            2.003751644172    -0.980716946168    -3.914152055185
    H            3.812990109746    -2.093011307906    -0.367669240739
    H            3.716157797050    -1.965283662982    -2.686053313136
    H           -3.516077100390     1.851211996444     2.803126466438

*** Psi4 exiting successfully. Buy a developer a beer!
