                               Psi4 1.1 release

  ==> Input File <==

--------------------------------------------------------------------------

memory 5000 mb

molecule butane {
  symmetry C1
  0 1
  H      1.850   0.393   -9.167
  H      1.551   1.758   -8.116
  H      1.991   2.020   -9.786
  C      2.142   1.395   -8.932
  H      4.169   2.051   -9.210
  H      3.731   1.788   -7.539
  C      3.631   1.416   -8.537
  H      3.665   -0.647   -7.940
  H      4.104   -0.384   -9.610
  C      4.203   -0.012   -8.612
  H      6.088   -0.983   -8.270
  H      5.791   0.381   -7.220
  H      6.230   0.644   -8.890
  C      5.691   0.009   -8.218
  units Angstrom
}

dih_string = "10 7 4 3 240"
set optking fixed_dihedral = $dih_string

optimize('MP2/aug-cc-pvtz')
--------------------------------------------------------------------------

    Molecular point group: c1
  Charge       = 0
  Multiplicity = 1
  Basis Set: AUG-CC-PVTZ
    Blend: AUG-CC-PVTZ
  Basis Set: (AUG-CC-PVTZ AUX)
    Blend: AUG-CC-PVTZ-JKFIT
  @DF-RHF Final Energy:  -157.34719096048303
    Total Energy =                       -157.3471909604830330
  Basis Set: (AUG-CC-PVTZ AUX)
    Blend: AUG-CC-PVTZ-RI
    Molecular point group: c1
  Basis Set: AUG-CC-PVTZ
    Blend: AUG-CC-PVTZ
  Basis Set: (AUG-CC-PVTZ AUX)
    Blend: AUG-CC-PVTZ-JKFIT
  Basis Set: (AUG-CC-PVTZ AUX)
    Blend: AUG-CC-PVTZ-JKFIT
	 Reference Energy          =    -157.3471909604830330 [Eh]
	 Singles Energy            =      -0.0000000000000001 [Eh]
	 Same-Spin Energy          =      -0.1654857880258384 [Eh]
	 Opposite-Spin Energy      =      -0.6394841842866387 [Eh]
	 Correlation Energy        =      -0.8049699723124771 [Eh]
	 Total Energy              =    -158.1521609327955105 [Eh]
	 SCS Total Energy          =    -158.1697339109689437 [Eh]
  @DF-RHF Final Energy:  -157.35011996601096
    Total Energy =                       -157.3501199660109648
  @DF-RHF Final Energy:  -157.35102289522655
    Total Energy =                       -157.3510228952265493
  @DF-RHF Final Energy:  -157.35129663132707
    Total Energy =                       -157.3512966313270738
  Charge       = 0
  Multiplicity = 1
  Basis Set: AUG-CC-PVTZ
    Blend: AUG-CC-PVTZ
  Basis Set: (AUG-CC-PVTZ AUX)
    Blend: AUG-CC-PVTZ-JKFIT

    Orbital Energies (a.u.)
    -----------------------

    Doubly Occupied:

       1A    -11.211691     2A    -11.210886     3A    -11.205887
       4A    -11.205519     5A     -1.072605     6A     -0.980138
       7A     -0.862040     8A     -0.788952     9A     -0.638684
      10A     -0.583466    11A     -0.577756    12A     -0.569565
      13A     -0.511137    14A     -0.497086    15A     -0.470375
      16A     -0.456580    17A     -0.456066

  @DF-RHF Final Energy:  -157.35127465456347

   => Energetics <=

    Nuclear Repulsion Energy =            131.2698746206154965
    One-Electron Energy =                -470.6454299422893541
    Two-Electron Energy =                 182.0242806671103892
    DFT Exchange-Correlation Energy =       0.0000000000000000
    Empirical Dispersion Energy =           0.0000000000000000
    PCM Polarization Energy =               0.0000000000000000
    EFP Energy =                            0.0000000000000000
    Total Energy =                       -157.3512746545634684
  Basis Set: (AUG-CC-PVTZ AUX)
    Blend: AUG-CC-PVTZ-RI
    Molecular point group: c1
  Basis Set: AUG-CC-PVTZ
    Blend: AUG-CC-PVTZ
  Basis Set: (AUG-CC-PVTZ AUX)
    Blend: AUG-CC-PVTZ-JKFIT
  Basis Set: (AUG-CC-PVTZ AUX)
    Blend: AUG-CC-PVTZ-JKFIT
	 Reference Energy          =    -157.3512746545634684 [Eh]
	 Singles Energy            =      -0.0000000000000000 [Eh]
	 Same-Spin Energy          =      -0.1654446482964536 [Eh]
	 Opposite-Spin Energy      =      -0.6398946405980563 [Eh]
	 Correlation Energy        =      -0.8053392888945100 [Eh]
	 Total Energy              =    -158.1566139434579839 [Eh]

	 ================> DF-SCS-MP2 Energies <==================
	-----------------------------------------------------------
	 SCS Same-Spin Scale       =       0.3333333333333333 [-]
	 SCS Opposite-Spin Scale   =       1.2000000000000000 [-]
	 SCS Same-Spin Energy      =      -0.0551482160988179 [Eh]
	 SCS Opposite-Spin Energy  =      -0.7678735687176675 [Eh]
	 SCS Correlation Energy    =      -0.8230217848164855 [Eh]
	 SCS Total Energy          =    -158.1742964393799582 [Eh]
	-----------------------------------------------------------

  -Total Gradient:
     Atom            X                  Y                   Z
    ------   -----------------  -----------------  -----------------
       1       -0.000006989098    -0.000035145429     0.000009841336
       2       -0.000027608277     0.000055046350     0.000042361617
       3        0.000001300414     0.000032049566    -0.000062768193
       4        0.000052078560    -0.000074594493     0.000006339974
       5       -0.000012449052     0.000009603926    -0.000022080648
       6       -0.000018587891    -0.000020059548     0.000037164885
       7        0.000064249242    -0.000008838945     0.000027047602
       8       -0.000018780332    -0.000008089192     0.000032143578
       9        0.000000969144    -0.000004357791    -0.000040580197
      10        0.000041130921     0.000025803319    -0.000015386263
      11        0.000027798737    -0.000061861294    -0.000001461948
      12        0.000022646748     0.000021964952     0.000064799870
      13        0.000046492342     0.000035321793    -0.000034357142
      14       -0.000172251460     0.000033156787    -0.000043064468

  **** Optimization is complete! (in 5 steps) ****
    Final optimized geometry and variables:
    Molecular point group: c1

    Geometry (in Angstrom), charge = 0, multiplicity = 1:

    H           -2.123088718942    -0.309548225094    -0.611515753276
    H           -2.418028025923     1.052536269722     0.450434679347
    H           -1.979109698790     1.325584290249    -1.224346734870
    C           -1.788305271532     0.695120836939    -0.359962236587
    H            0.258384080849     1.349986130878    -0.631594863734
    H           -0.178236440305     1.088878609604     1.034457822511
    C           -0.305865593005     0.690474022871     0.027860324412
    H           -0.242573462093    -1.356924646868     0.637180310533
    H            0.196489971363    -1.094429979519    -1.034557427584
    C            0.314404253441    -0.693648061054    -0.026528106572
    H            2.209042091956    -1.690667055032     0.314458597863
    H            1.911829211263    -0.314927671596     1.371802469139
    H            2.353334314378    -0.050827550819    -0.309305829295
    C            1.780770797565    -0.691918258119     0.358880860466

*** Psi4 exiting successfully. Buy a developer a beer!
