                               Psi4 1.1 release

  ==> Input File <==

--------------------------------------------------------------------------

memory 5 Gb

molecule phepyrF {
  symmetry C1
  0 1
  C      1.885   -1.036   -0.112
  C      0.807   -0.463   0.561
  C      2.921   -1.631   0.608
  C      0.764   -0.484   1.955
  C      4.493   -1.631   3.857
  C      4.455   -3.506   2.351
  C      5.522   -2.265   4.534
  C      5.486   -4.056   3.096
  C      2.878   -1.652   2.002
  C      3.955   -2.270   2.745
  C      1.800   -1.079   2.676
  N      6.034   -3.465   4.182
  F      1.744   -1.089   4.016
  H      1.918   -1.020   -1.198
  H      0.000   -0.000   -0.000
  H      3.755   -2.073   0.068
  H      -0.076   -0.038   2.480
  H      4.129   -0.666   4.195
  H      4.061   -4.034   1.489
  H      5.975   -1.809   5.409
  H      5.912   -5.017   2.829
  units Angstrom
}

dih_string = "3 9 10 5 135"
set optking fixed_dihedral = $dih_string

optimize('MP2/aug-cc-PVTZ')
--------------------------------------------------------------------------

    Molecular point group: c1
  Charge       = 0
  Multiplicity = 1
  Basis Set: AUG-CC-PVTZ
    Blend: AUG-CC-PVTZ
  Basis Set: (AUG-CC-PVTZ AUX)
    Blend: AUG-CC-PVTZ-JKFIT
  @DF-RHF Final Energy:  -575.28345276659604
    Total Energy =                       -575.2834527665960422
  Basis Set: (AUG-CC-PVTZ AUX)
    Blend: AUG-CC-PVTZ-RI
    Molecular point group: c1
  Basis Set: AUG-CC-PVTZ
    Blend: AUG-CC-PVTZ
  Basis Set: (AUG-CC-PVTZ AUX)
    Blend: AUG-CC-PVTZ-JKFIT
  Basis Set: (AUG-CC-PVTZ AUX)
    Blend: AUG-CC-PVTZ-JKFIT
	 Reference Energy          =    -575.2834527665960422 [Eh]
	 Singles Energy            =      -0.0000000000000001 [Eh]
	 Same-Spin Energy          =      -0.6083647965752658 [Eh]
	 Opposite-Spin Energy      =      -1.8326005349681000 [Eh]
	 Correlation Energy        =      -2.4409653315433659 [Eh]
	 Total Energy              =    -577.7244180981393811 [Eh]
	 SCS Total Energy          =    -577.6853616740828556 [Eh]
  @DF-RHF Final Energy:  -575.28914725528693
    Total Energy =                       -575.2891472552869345
  @DF-RHF Final Energy:  -575.29046919125017
    Total Energy =                       -575.2904691912501676
  @DF-RHF Final Energy:  -575.29048214037709
    Total Energy =                       -575.2904821403770939
  @DF-RHF Final Energy:  -575.29046132658493
    Total Energy =                       -575.2904613265849321
  @DF-RHF Final Energy:  -575.29048646950923
    Total Energy =                       -575.2904864695092328
  Charge       = 0
  Multiplicity = 1
  Basis Set: AUG-CC-PVTZ
    Blend: AUG-CC-PVTZ
  Basis Set: (AUG-CC-PVTZ AUX)
    Blend: AUG-CC-PVTZ-JKFIT

    Orbital Energies (a.u.)
    -----------------------

    Doubly Occupied:

       1A    -26.318058     2A    -15.563798     3A    -11.338622
       4A    -11.273088     5A    -11.271974     6A    -11.269433
       7A    -11.262718     8A    -11.257304     9A    -11.257072
      10A    -11.251473    11A    -11.247816    12A    -11.240117
      13A    -11.238212    14A     -1.637095    15A     -1.260261
      16A     -1.186879    17A     -1.115795    18A     -1.039921
      19A     -1.034330    20A     -1.029545    21A     -0.893307
      22A     -0.873371    23A     -0.847491    24A     -0.827185
      25A     -0.756877    26A     -0.723030    27A     -0.715445
      28A     -0.704995    29A     -0.672530    30A     -0.664373
      31A     -0.653389    32A     -0.625967    33A     -0.612317
      34A     -0.597931    35A     -0.592963    36A     -0.550956
      37A     -0.540422    38A     -0.526892    39A     -0.520028
      40A     -0.509910    41A     -0.419305    42A     -0.406342
      43A     -0.355144    44A     -0.348971    45A     -0.334704

  @DF-RHF Final Energy:  -575.29049718222177

   => Energetics <=

    Nuclear Repulsion Energy =            715.7779469556534195
    One-Electron Energy =               -2203.4021777336984087
    Two-Electron Energy =                 912.3337335958231051
    DFT Exchange-Correlation Energy =       0.0000000000000000
    Empirical Dispersion Energy =           0.0000000000000000
    PCM Polarization Energy =               0.0000000000000000
    EFP Energy =                            0.0000000000000000
    Total Energy =                       -575.2904971822217703
  Basis Set: (AUG-CC-PVTZ AUX)
    Blend: AUG-CC-PVTZ-RI
    Molecular point group: c1
  Basis Set: AUG-CC-PVTZ
    Blend: AUG-CC-PVTZ
  Basis Set: (AUG-CC-PVTZ AUX)
    Blend: AUG-CC-PVTZ-JKFIT
  Basis Set: (AUG-CC-PVTZ AUX)
    Blend: AUG-CC-PVTZ-JKFIT
	 Reference Energy          =    -575.2904971822217703 [Eh]
	 Singles Energy            =      -0.0000000000000009 [Eh]
	 Same-Spin Energy          =      -0.6073726574258093 [Eh]
	 Opposite-Spin Energy      =      -1.8300703123066620 [Eh]
	 Correlation Energy        =      -2.4374429697324720 [Eh]
	 Total Energy              =    -577.7279401519542716 [Eh]

	 ================> DF-SCS-MP2 Energies <==================
	-----------------------------------------------------------
	 SCS Same-Spin Scale       =       0.3333333333333333 [-]
	 SCS Opposite-Spin Scale   =       1.2000000000000000 [-]
	 SCS Same-Spin Energy      =      -0.2024575524752698 [Eh]
	 SCS Opposite-Spin Energy  =      -2.1960843747679943 [Eh]
	 SCS Correlation Energy    =      -2.3985419272432651 [Eh]
	 SCS Total Energy          =    -577.6890391094650568 [Eh]
	-----------------------------------------------------------

  -Total Gradient:
     Atom            X                  Y                   Z
    ------   -----------------  -----------------  -----------------
       1       -0.000006744187    -0.000006907048     0.000004952366
       2       -0.000006955217     0.000004555313    -0.000008839968
       3        0.000317773386     0.000538267143     0.000016075257
       4        0.000005811135     0.000000594140     0.000014161204
       5        0.000423484874     0.000296513013    -0.000388186698
       6        0.000002024472    -0.000001848337     0.000008221641
       7       -0.000065731871    -0.000039569493     0.000035030490
       8        0.000047666367     0.000052003186    -0.000057999270
       9       -0.000225275001    -0.000669014099    -0.000181459283
      10       -0.000540391118    -0.000152669036     0.000567701246
      11        0.000003344929    -0.000005330814    -0.000049435355
      12        0.000016993086    -0.000010187900     0.000012046239
      13        0.000014829722    -0.000008420248     0.000036088678
      14        0.000003838402     0.000003301595    -0.000005394778
      15        0.000000422557     0.000001643536    -0.000003102752
      16       -0.000000196855     0.000003824753    -0.000008845674
      17       -0.000001598611     0.000001254664     0.000000073237
      18        0.000011006672     0.000008002552    -0.000004004347
      19       -0.000004515490    -0.000007271386     0.000002739062
      20        0.000023547069     0.000012556647    -0.000013493431
      21       -0.000019334335    -0.000021298182     0.000023672135

  **** Optimization is complete! (in 7 steps) ****
    Final optimized geometry and variables:
    Molecular point group: c1

    Geometry (in Angstrom), charge = 0, multiplicity = 1:

    C           -1.357702154642     0.816347159692    -2.676086874362
    C           -2.435945410315     1.411460550826    -2.035685360840
    C           -0.349569151660     0.229470700076    -1.928626663227
    C           -2.500393169894     1.416836513122    -0.650353329102
    C            1.250577032526     0.210461659893     1.354580984499
    C            1.223962406288    -1.624952293041    -0.150434522387
    C            2.299345376628    -0.412343995290     2.012011600819
    C            2.272668115257    -2.171117924010     0.571930875524
    C           -0.387237238531     0.219484065397    -0.533770747906
    C            0.688149592200    -0.401379266704     0.238833966836
    C           -1.481355782383     0.827940070959     0.069183245309
    N            2.816389246529    -1.586318963854     1.641375537153
    F           -1.573780008199     0.824716416137     1.412715298591
    H           -1.298564493505     0.816438931638    -3.752924241867
    H           -3.225445892099     1.872504165092    -2.608292722558
    H            0.500820473028    -0.216292832918    -2.422521920140
    H           -3.326175290491     1.863423599685    -0.120746179332
    H            0.885061759591     1.163813803504     1.700828303597
    H            0.815717855482    -2.154870371143    -0.997976873177
    H            2.748863396764     0.055512096543     2.876462494432
    H            2.692548085767    -3.124132272966     0.281998028665

*** Psi4 exiting successfully. Buy a developer a beer!
