                               Psi4 1.1 release

  ==> Input File <==

--------------------------------------------------------------------------

memory 5 Gb

molecule phepyrOH_neutral {
  symmetry C1
  0 1
  C      1.885   -1.036   -0.112
  C      2.878   -1.652   2.002
  C      0.807   -0.463   0.561
  C      1.800   -1.079   2.676
  C      5.012   -1.416   -0.667
  C      4.147   -3.608   -0.186
  C      6.064   -2.035   -1.323
  C      5.238   -4.128   -0.864
  C      2.921   -1.631   0.608
  C      4.040   -2.225   -0.090
  C      0.764   -0.484   1.955
  N      6.203   -3.375   -1.437
  O      -0.288   0.076   2.612
  H      1.904   -1.012   -1.199
  H      3.678   -2.112   2.578
  H      0.003   -0.001   -0.006
  H      1.772   -1.098   3.762
  H      4.964   -0.333   -0.612
  H      3.407   -4.271   0.251
  H      6.850   -1.448   -1.788
  H      5.367   -5.201   -0.968
  H      -0.175   -0.018   3.571
  units Angstrom
}

dih_string = "1 9 10 5 75"
set optking fixed_dihedral = $dih_string

optimize('MP2/aug-cc-PVTZ')
--------------------------------------------------------------------------

    Molecular point group: c1
  Charge       = 0
  Multiplicity = 1
  Basis Set: AUG-CC-PVTZ
    Blend: AUG-CC-PVTZ
  Basis Set: (AUG-CC-PVTZ AUX)
    Blend: AUG-CC-PVTZ-JKFIT
  @DF-RHF Final Energy:  -551.28475473446508
    Total Energy =                       -551.2847547344650820
  Basis Set: (AUG-CC-PVTZ AUX)
    Blend: AUG-CC-PVTZ-RI
    Molecular point group: c1
  Basis Set: AUG-CC-PVTZ
    Blend: AUG-CC-PVTZ
  Basis Set: (AUG-CC-PVTZ AUX)
    Blend: AUG-CC-PVTZ-JKFIT
  Basis Set: (AUG-CC-PVTZ AUX)
    Blend: AUG-CC-PVTZ-JKFIT
	 Reference Energy          =    -551.2847547344650820 [Eh]
	 Singles Energy            =      -0.0000000000000001 [Eh]
	 Same-Spin Energy          =      -0.6042056806889847 [Eh]
	 Opposite-Spin Energy      =      -1.8300231635562865 [Eh]
	 Correlation Energy        =      -2.4342288442452711 [Eh]
	 Total Energy              =    -553.7189835787103220 [Eh]
	 SCS Total Energy          =    -553.6821844242956558 [Eh]
  @DF-RHF Final Energy:  -551.29016308034090
    Total Energy =                       -551.2901630803409034
  @DF-RHF Final Energy:  -551.29117417725206
    Total Energy =                       -551.2911741772520600
  @DF-RHF Final Energy:  -551.29113520600890
    Total Energy =                       -551.2911352060089030
  @DF-RHF Final Energy:  -551.29109257347750
    Total Energy =                       -551.2910925734774992
  Charge       = 0
  Multiplicity = 1
  Basis Set: AUG-CC-PVTZ
    Blend: AUG-CC-PVTZ
  Basis Set: (AUG-CC-PVTZ AUX)
    Blend: AUG-CC-PVTZ-JKFIT

    Orbital Energies (a.u.)
    -----------------------

    Doubly Occupied:

       1A    -20.599361     2A    -15.562388     3A    -11.310240
       4A    -11.271991     5A    -11.271940     6A    -11.263020
       7A    -11.250691     8A    -11.248667     9A    -11.244182
      10A    -11.242328    11A    -11.236346    12A    -11.236295
      13A    -11.235889    14A     -1.416527    15A     -1.258754
      16A     -1.173229    17A     -1.104606    18A     -1.035067
      19A     -1.032089    20A     -1.012393    21A     -0.879155
      22A     -0.863134    23A     -0.853158    24A     -0.811655
      25A     -0.745856    26A     -0.724970    27A     -0.679567
      28A     -0.666361    29A     -0.656557    30A     -0.637543
      31A     -0.615937    32A     -0.601694    33A     -0.601089
      34A     -0.596128    35A     -0.581454    36A     -0.540199
      37A     -0.529546    38A     -0.523404    39A     -0.504853
      40A     -0.490107    41A     -0.417217    42A     -0.381428
      43A     -0.356219    44A     -0.346204    45A     -0.321504

  @DF-RHF Final Energy:  -551.29111038090491

   => Energetics <=

    Nuclear Repulsion Energy =            697.0392671777306077
    One-Electron Energy =               -2130.7988789069772793
    Two-Electron Energy =                 882.4685013483417606
    DFT Exchange-Correlation Energy =       0.0000000000000000
    Empirical Dispersion Energy =           0.0000000000000000
    PCM Polarization Energy =               0.0000000000000000
    EFP Energy =                            0.0000000000000000
    Total Energy =                       -551.2911103809049109
  Basis Set: (AUG-CC-PVTZ AUX)
    Blend: AUG-CC-PVTZ-RI
    Molecular point group: c1
  Basis Set: AUG-CC-PVTZ
    Blend: AUG-CC-PVTZ
  Basis Set: (AUG-CC-PVTZ AUX)
    Blend: AUG-CC-PVTZ-JKFIT
  Basis Set: (AUG-CC-PVTZ AUX)
    Blend: AUG-CC-PVTZ-JKFIT
	 Reference Energy          =    -551.2911103809049109 [Eh]
	 Singles Energy            =      -0.0000000000000007 [Eh]
	 Same-Spin Energy          =      -0.6033517063464369 [Eh]
	 Opposite-Spin Energy      =      -1.8277269326233472 [Eh]
	 Correlation Energy        =      -2.4310786389697849 [Eh]
	 Total Energy              =    -553.7221890198746905 [Eh]

	 ================> DF-SCS-MP2 Energies <==================
	-----------------------------------------------------------
	 SCS Same-Spin Scale       =       0.3333333333333333 [-]
	 SCS Opposite-Spin Scale   =       1.2000000000000000 [-]
	 SCS Same-Spin Energy      =      -0.2011172354488123 [Eh]
	 SCS Opposite-Spin Energy  =      -2.1932723191480163 [Eh]
	 SCS Correlation Energy    =      -2.3943895545968297 [Eh]
	 SCS Total Energy          =    -553.6854999355017526 [Eh]
	-----------------------------------------------------------

  -Total Gradient:
     Atom            X                  Y                   Z
    ------   -----------------  -----------------  -----------------
       1       -0.001114276949    -0.002048471105    -0.000071451512
       2       -0.000020153268    -0.000033224387     0.000004291465
       3       -0.000021685710     0.000013408935     0.000056460479
       4        0.000014064687     0.000014026585    -0.000004909853
       5        0.001274728022    -0.000014565779     0.001966521144
       6        0.000032217332    -0.000016129847     0.000045851830
       7        0.000058493389     0.000082182415     0.000085590507
       8       -0.000090535142    -0.000050275365    -0.000082246790
       9        0.002332868837     0.003072766321     0.001105925471
      10       -0.002454990359    -0.000967085148    -0.003089353780
      11       -0.000020886256    -0.000011031859    -0.000040624308
      12       -0.000026543665    -0.000002302826     0.000010002946
      13        0.000008503830    -0.000005627930     0.000036010319
      14       -0.000009437124    -0.000008934051     0.000024158236
      15       -0.000022082801     0.000005255319    -0.000008070375
      16        0.000020501982    -0.000006284041    -0.000008841860
      17       -0.000003507077     0.000006347855    -0.000002755592
      18        0.000007472702    -0.000030870999    -0.000006023846
      19        0.000034379835     0.000005592689    -0.000003415793
      20       -0.000014713536     0.000012320768    -0.000030309617
      21        0.000017084750    -0.000022201764     0.000039138238
      22       -0.000001503488     0.000005104216    -0.000025947318

  **** Optimization is complete! (in 6 steps) ****
    Final optimized geometry and variables:
    Molecular point group: c1

    Geometry (in Angstrom), charge = 0, multiplicity = 1:

    C           -1.264189758247     0.759298227159    -0.559577429314
    C           -0.284200480780     0.087464244824     1.518580527072
    C           -2.337679179361     1.313221274152     0.117295947537
    C           -1.354511406883     0.642876746199     2.203853654474
    C            1.887883057658     0.303372270446    -1.194420612016
    C            1.044361300860    -1.848703331034    -0.658082177185
    C            2.942252256821    -0.324833966079    -1.839882094977
    C            2.134189104191    -2.387790711891    -1.324736409102
    C           -0.219393754693     0.148483867640     0.130344435015
    C            0.900771360073    -0.467626593437    -0.591533888835
    C           -2.383132535254     1.257539170367     1.503051672430
    N            3.078754417504    -1.650853939997    -1.913877637067
    O           -3.462639332567     1.820755240566     2.114925202635
    H           -1.235636564286     0.798025192900    -1.638431933843
    H            0.513162787289    -0.390556553519     2.068145835414
    H           -3.149652382654     1.785305292156    -0.413590521492
    H           -1.387741977340     0.597899779315     3.283783726533
    H            1.833591394728     1.381046403722    -1.157871651990
    H            0.308731436384    -2.493788404299    -0.201499221217
    H            3.716306178822     0.262015786327    -2.314372278119
    H            2.255584972444    -3.460114847788    -1.389555626886
    H           -3.373885471864     1.713247390426     3.066592725395

*** Psi4 exiting successfully. Buy a developer a beer!
