                               Psi4 1.1 release

  ==> Input File <==

--------------------------------------------------------------------------

memory 5 Gb

molecule phepyrF {
  symmetry C1
  0 1
  C      1.885   -1.036   -0.112
  C      0.807   -0.463   0.561
  C      2.921   -1.631   0.608
  C      0.764   -0.484   1.955
  C      4.665   -3.331   2.194
  C      4.285   -1.804   4.013
  C      5.688   -3.886   2.945
  C      5.325   -2.428   4.683
  C      2.878   -1.652   2.002
  C      3.955   -2.270   2.745
  C      1.800   -1.079   2.676
  N      6.038   -3.461   4.180
  F      1.744   -1.089   4.016
  H      1.918   -1.020   -1.198
  H      0.000   -0.000   -0.000
  H      3.755   -2.073   0.068
  H      -0.076   -0.038   2.480
  H      4.438   -3.721   1.207
  H      3.753   -0.979   4.475
  H      6.273   -4.715   2.559
  H      5.621   -2.103   5.675
  units Angstrom
}

dih_string = "3 9 10 5 330"
set optking fixed_dihedral = $dih_string

optimize('MP2/aug-cc-PVTZ')
--------------------------------------------------------------------------

    Molecular point group: c1
  Charge       = 0
  Multiplicity = 1
  Basis Set: AUG-CC-PVTZ
    Blend: AUG-CC-PVTZ
  Basis Set: (AUG-CC-PVTZ AUX)
    Blend: AUG-CC-PVTZ-JKFIT
  @DF-RHF Final Energy:  -575.27935073126423
    Total Energy =                       -575.2793507312642305
  Basis Set: (AUG-CC-PVTZ AUX)
    Blend: AUG-CC-PVTZ-RI
    Molecular point group: c1
  Basis Set: AUG-CC-PVTZ
    Blend: AUG-CC-PVTZ
  Basis Set: (AUG-CC-PVTZ AUX)
    Blend: AUG-CC-PVTZ-JKFIT
  Basis Set: (AUG-CC-PVTZ AUX)
    Blend: AUG-CC-PVTZ-JKFIT
	 Reference Energy          =    -575.2793507312642305 [Eh]
	 Singles Energy            =      -0.0000000000000002 [Eh]
	 Same-Spin Energy          =      -0.6090878698554933 [Eh]
	 Opposite-Spin Energy      =      -1.8334733722679581 [Eh]
	 Correlation Energy        =      -2.4425612421234515 [Eh]
	 Total Energy              =    -577.7219119733877051 [Eh]
	 SCS Total Energy          =    -577.6825480679376597 [Eh]
  @DF-RHF Final Energy:  -575.28578679652799
    Total Energy =                       -575.2857867965279866
  @DF-RHF Final Energy:  -575.28820684928019
    Total Energy =                       -575.2882068492801864
  @DF-RHF Final Energy:  -575.28892163380965
    Total Energy =                       -575.2889216338096503
  @DF-RHF Final Energy:  -575.28924680153591
    Total Energy =                       -575.2892468015359100
  @DF-RHF Final Energy:  -575.28942298386789
    Total Energy =                       -575.2894229838678939
  @DF-RHF Final Energy:  -575.28949251548056
    Total Energy =                       -575.2894925154805605
  Charge       = 0
  Multiplicity = 1
  Basis Set: AUG-CC-PVTZ
    Blend: AUG-CC-PVTZ
  Basis Set: (AUG-CC-PVTZ AUX)
    Blend: AUG-CC-PVTZ-JKFIT

    Orbital Energies (a.u.)
    -----------------------

    Doubly Occupied:

       1A    -26.319175     2A    -15.563419     3A    -11.339903
       4A    -11.272617     5A    -11.271353     6A    -11.270749
       7A    -11.264469     8A    -11.257976     9A    -11.257469
      10A    -11.251644    11A    -11.248111    12A    -11.239931
      13A    -11.237254    14A     -1.638460    15A     -1.260005
      16A     -1.187160    17A     -1.115855    18A     -1.040362
      19A     -1.033781    20A     -1.030143    21A     -0.894182
      22A     -0.875111    23A     -0.845270    24A     -0.828439
      25A     -0.757584    26A     -0.722932    27A     -0.717477
      28A     -0.706026    29A     -0.673348    30A     -0.663113
      31A     -0.653983    32A     -0.625104    33A     -0.611663
      34A     -0.597692    35A     -0.592795    36A     -0.551750
      37A     -0.541903    38A     -0.527635    39A     -0.520255
      40A     -0.508214    41A     -0.419377    42A     -0.412032
      43A     -0.355311    44A     -0.348607    45A     -0.331093

  @DF-RHF Final Energy:  -575.28951634190150

   => Energetics <=

    Nuclear Repulsion Energy =            715.5150329202147077
    One-Electron Energy =               -2202.8476381591744939
    Two-Electron Energy =                 912.0430888970582828
    DFT Exchange-Correlation Energy =       0.0000000000000000
    Empirical Dispersion Energy =           0.0000000000000000
    PCM Polarization Energy =               0.0000000000000000
    EFP Energy =                            0.0000000000000000
    Total Energy =                       -575.2895163419015034
  Basis Set: (AUG-CC-PVTZ AUX)
    Blend: AUG-CC-PVTZ-RI
    Molecular point group: c1
  Basis Set: AUG-CC-PVTZ
    Blend: AUG-CC-PVTZ
  Basis Set: (AUG-CC-PVTZ AUX)
    Blend: AUG-CC-PVTZ-JKFIT
  Basis Set: (AUG-CC-PVTZ AUX)
    Blend: AUG-CC-PVTZ-JKFIT
	 Reference Energy          =    -575.2895163419015034 [Eh]
	 Singles Energy            =      -0.0000000000000004 [Eh]
	 Same-Spin Energy          =      -0.6076241015598579 [Eh]
	 Opposite-Spin Energy      =      -1.8304613751865315 [Eh]
	 Correlation Energy        =      -2.4380854767463900 [Eh]
	 Total Energy              =    -577.7276018186479405 [Eh]

	 ================> DF-SCS-MP2 Energies <==================
	-----------------------------------------------------------
	 SCS Same-Spin Scale       =       0.3333333333333333 [-]
	 SCS Opposite-Spin Scale   =       1.2000000000000000 [-]
	 SCS Same-Spin Energy      =      -0.2025413671866193 [Eh]
	 SCS Opposite-Spin Energy  =      -2.1965536502238376 [Eh]
	 SCS Correlation Energy    =      -2.3990950174104575 [Eh]
	 SCS Total Energy          =    -577.6886113593119489 [Eh]
	-----------------------------------------------------------

  -Total Gradient:
     Atom            X                  Y                   Z
    ------   -----------------  -----------------  -----------------
       1       -0.000006497794    -0.000011034748     0.000008703410
       2        0.000001516814     0.000004124460    -0.000007068118
       3       -0.000974791345    -0.001718339928    -0.000089202089
       4       -0.000004845554     0.000033890702     0.000021226457
       5        0.001351674163     0.001258961941    -0.000788394851
       6        0.000011192240     0.000010879843    -0.000025341703
       7       -0.000045807810    -0.000028090962    -0.000006975149
       8       -0.000018130445    -0.000047804088     0.000017695992
       9        0.002137897783     0.003168382902    -0.000233546400
      10       -0.002485040380    -0.002688574249     0.001138320773
      11       -0.000033491690    -0.000063061934    -0.000128934531
      12        0.000034672226     0.000043436168     0.000003709678
      13        0.000012995519     0.000021239321     0.000091621302
      14        0.000002999513     0.000002475277     0.000000490265
      15        0.000003984046    -0.000002760872    -0.000003620663
      16        0.000000509743     0.000000632703    -0.000000257133
      17        0.000007074455    -0.000005112665     0.000007743168
      18       -0.000001775362     0.000005948317    -0.000007483231
      19        0.000000580833     0.000006124323     0.000000793181
      20        0.000005124112     0.000002736711    -0.000000331768
      21        0.000000158915     0.000005946771     0.000000851402

  **** Optimization is complete! (in 8 steps) ****
    Final optimized geometry and variables:
    Molecular point group: c1

    Geometry (in Angstrom), charge = 0, multiplicity = 1:

    C           -1.350462717259     0.867039460004    -2.661259774282
    C           -2.452009651740     1.418116597586    -2.021464636460
    C           -0.335992034949     0.290534364772    -1.915752902576
    C           -2.530110135929     1.383769854951    -0.638157866794
    C            1.402790582413    -1.464072246218    -0.298915911937
    C            1.107129008891     0.060544422426     1.492102047304
    C            2.450796764011    -2.024227656930     0.412217080949
    C            2.170960208147    -0.561667618297     2.125741486316
    C           -0.377777666874     0.249347219242    -0.519862742371
    C            0.694509391521    -0.392965762171     0.241254055201
    C           -1.504295824802     0.804077405185     0.079552060952
    N            2.846355413165    -1.591735889946     1.611510751513
    F           -1.633625368135     0.754437889837     1.419813686750
    H           -1.277574272598     0.892334236949    -3.736958123088
    H           -3.247340724140     1.872006185410    -2.591661079234
    H            0.531598362368    -0.110423710762    -2.416823720359
    H           -3.374569555216     1.789580336703    -0.105133637325
    H            1.123246443520    -1.882204349381    -1.253718970224
    H            0.621804860377     0.898513245107     1.963319572418
    H            2.997097256861    -2.861218218683     0.000375930451
    H            2.498823620164    -0.211489047123     3.094355063660

*** Psi4 exiting successfully. Buy a developer a beer!
