                               Psi4 1.1 release

  ==> Input File <==

--------------------------------------------------------------------------

memory 5 Gb

molecule phepyrFOH_neutral {
  symmetry C1
  0 1
  C      1.885   -1.036   -0.112
  C      0.807   -0.463   0.561
  C      3.825   -3.269   -0.988
  C      5.328   -1.753   0.119
  C      1.800   -1.079   2.676
  C      4.927   -3.802   -1.637
  C      6.363   -2.354   -0.579
  C      2.921   -1.631   0.608
  C      4.038   -2.225   -0.095
  C      0.764   -0.484   1.955
  C      2.878   -1.652   2.002
  N      6.195   -3.370   -1.455
  O      -0.289   0.076   2.612
  F      3.866   -2.220   2.709
  H      1.904   -1.012   -1.199
  H      0.002   -0.002   -0.006
  H      2.833   -3.663   -1.183
  H      5.532   -0.940   0.809
  H      1.772   -1.099   3.762
  H      4.814   -4.616   -2.345
  H      7.387   -2.023   -0.446
  H      0.027   0.613   3.356
  units Angstrom
}

dih_string = "2 10 13 22 225"
set optking fixed_dihedral = $dih_string

optimize('MP2/aug-cc-PVTZ')
--------------------------------------------------------------------------

    Molecular point group: c1
  Charge       = 0
  Multiplicity = 1
  Basis Set: AUG-CC-PVTZ
    Blend: AUG-CC-PVTZ
  Basis Set: (AUG-CC-PVTZ AUX)
    Blend: AUG-CC-PVTZ-JKFIT
  @DF-RHF Final Energy:  -650.17157505621219
    Total Energy =                       -650.1715750562123048
  Basis Set: (AUG-CC-PVTZ AUX)
    Blend: AUG-CC-PVTZ-RI
    Molecular point group: c1
  Basis Set: AUG-CC-PVTZ
    Blend: AUG-CC-PVTZ
  Basis Set: (AUG-CC-PVTZ AUX)
    Blend: AUG-CC-PVTZ-JKFIT
  Basis Set: (AUG-CC-PVTZ AUX)
    Blend: AUG-CC-PVTZ-JKFIT
	 Reference Energy          =    -650.1715750562121912 [Eh]
	 Singles Energy            =      -0.0000000000000002 [Eh]
	 Same-Spin Energy          =      -0.6773073973879425 [Eh]
	 Opposite-Spin Energy      =      -2.0190075584877603 [Eh]
	 Correlation Energy        =      -2.6963149558757027 [Eh]
	 Total Energy              =    -652.8678900120878552 [Eh]
	 SCS Total Energy          =    -652.8201532588601594 [Eh]
  @DF-RHF Final Energy:  -650.17765208581181
    Total Energy =                       -650.1776520858118147
  @DF-RHF Final Energy:  -650.17924142665106
    Total Energy =                       -650.1792414266510605
  @DF-RHF Final Energy:  -650.17932521653847
    Total Energy =                       -650.1793252165384729
  @DF-RHF Final Energy:  -650.17926287119894
    Total Energy =                       -650.1792628711989437
  @DF-RHF Final Energy:  -650.17929687752269
    Total Energy =                       -650.1792968775225745
  @DF-RHF Final Energy:  -650.17936772044209
    Total Energy =                       -650.1793677204420874
  @DF-RHF Final Energy:  -650.17941330126587
    Total Energy =                       -650.1794133012658676
  @DF-RHF Final Energy:  -650.17937223216927
    Total Energy =                       -650.1793722321692712
  @DF-RHF Final Energy:  -650.17924356088042
    Total Energy =                       -650.1792435608804226
  @DF-RHF Final Energy:  -650.17931051187566
    Total Energy =                       -650.1793105118756557
  Charge       = 0
  Multiplicity = 1
  Basis Set: AUG-CC-PVTZ
    Blend: AUG-CC-PVTZ
  Basis Set: (AUG-CC-PVTZ AUX)
    Blend: AUG-CC-PVTZ-JKFIT

    Orbital Energies (a.u.)
    -----------------------

    Doubly Occupied:

       1A    -26.323242     2A    -20.603899     3A    -15.562551
       4A    -11.346992     5A    -11.323562     6A    -11.272450
       7A    -11.271390     8A    -11.269586     9A    -11.263195
      10A    -11.258555    11A    -11.251484    12A    -11.243700
      13A    -11.238944    14A    -11.236983    15A     -1.642154
      16A     -1.420389    17A     -1.259398    18A     -1.186565
      19A     -1.113207    20A     -1.044964    21A     -1.034550
      22A     -1.024712    23A     -0.892915    24A     -0.879671
      25A     -0.853282    26A     -0.829470    27A     -0.772379
      28A     -0.743808    29A     -0.728059    30A     -0.709955
      31A     -0.698425    32A     -0.667822    33A     -0.662792
      34A     -0.642717    35A     -0.635034    36A     -0.628715
      37A     -0.607392    38A     -0.596165    39A     -0.564914
      40A     -0.548635    41A     -0.543540    42A     -0.528367
      43A     -0.519266    44A     -0.499991    45A     -0.418546
      46A     -0.402801    47A     -0.361517    48A     -0.348483
      49A     -0.324743

  @DF-RHF Final Energy:  -650.17929392273049

   => Energetics <=

    Nuclear Repulsion Energy =            813.9739652692209120
    One-Electron Energy =               -2502.7027618169295238
    Two-Electron Energy =                1038.5495026249780040
    DFT Exchange-Correlation Energy =       0.0000000000000000
    Empirical Dispersion Energy =           0.0000000000000000
    PCM Polarization Energy =               0.0000000000000000
    EFP Energy =                            0.0000000000000000
    Total Energy =                       -650.1792939227304942
  Basis Set: (AUG-CC-PVTZ AUX)
    Blend: AUG-CC-PVTZ-RI
    Molecular point group: c1
  Basis Set: AUG-CC-PVTZ
    Blend: AUG-CC-PVTZ
  Basis Set: (AUG-CC-PVTZ AUX)
    Blend: AUG-CC-PVTZ-JKFIT
  Basis Set: (AUG-CC-PVTZ AUX)
    Blend: AUG-CC-PVTZ-JKFIT
	 Reference Energy          =    -650.1792939227304942 [Eh]
	 Singles Energy            =      -0.0000000000000005 [Eh]
	 Same-Spin Energy          =      -0.6767478632856656 [Eh]
	 Opposite-Spin Energy      =      -2.0169552931592110 [Eh]
	 Correlation Energy        =      -2.6937031564448772 [Eh]
	 Total Energy              =    -652.8729970791753203 [Eh]

	 ================> DF-SCS-MP2 Energies <==================
	-----------------------------------------------------------
	 SCS Same-Spin Scale       =       0.3333333333333333 [-]
	 SCS Opposite-Spin Scale   =       1.2000000000000000 [-]
	 SCS Same-Spin Energy      =      -0.2255826210952219 [Eh]
	 SCS Opposite-Spin Energy  =      -2.4203463517910531 [Eh]
	 SCS Correlation Energy    =      -2.6459289728862756 [Eh]
	 SCS Total Energy          =    -652.8252228956167755 [Eh]
	-----------------------------------------------------------

  -Total Gradient:
     Atom            X                  Y                   Z
    ------   -----------------  -----------------  -----------------
       1       -0.000001776471    -0.000000604035     0.000006597772
       2        0.000925498134     0.002170580136    -0.000251460377
       3        0.000001001575    -0.000005917661     0.000000293189
       4        0.000014119289    -0.000000421980    -0.000005156914
       5        0.000000065908    -0.000007074305    -0.000012368040
       6       -0.000013597953     0.000002565272    -0.000009265769
       7        0.000004512730     0.000002487479     0.000001532800
       8        0.000002665441    -0.000012319192    -0.000002543617
       9       -0.000008243696     0.000003377407    -0.000017520079
      10       -0.001422682570    -0.002646120132    -0.000115841084
      11        0.000004437813    -0.000008369143     0.000010184240
      12        0.000003970085     0.000001611503     0.000004037671
      13        0.000629471134    -0.001767560461     0.002620507697
      14       -0.000005880551     0.000009530485     0.000005577459
      15       -0.000001619347     0.000000057885     0.000002870402
      16        0.000002093029    -0.000003924638    -0.000005053875
      17        0.000004745141     0.000000742071     0.000000188699
      18       -0.000002265758    -0.000002675448     0.000001870457
      19       -0.000001060267    -0.000000654565     0.000001662685
      20       -0.000001170445    -0.000002576790     0.000001644380
      21        0.000001356122     0.000000120598     0.000003471024
      22       -0.000135639351     0.002267145514    -0.002241228715

  **** Optimization is complete! (in 12 steps) ****
    Final optimized geometry and variables:
    Molecular point group: c1

    Geometry (in Angstrom), charge = 0, multiplicity = 1:

    C           -1.422521958316     0.540193955675    -0.737269282105
    C           -2.501500336369     1.116096529247    -0.090859141113
    C            0.628027231653    -1.357309952077    -1.818223621806
    C            2.169431838037    -0.183770291671    -0.448487341991
    C           -1.361145317326     0.853616985554     2.004808186965
    C            1.710718320356    -1.885984470461    -2.502012667035
    C            3.186978158608    -0.761344402353    -1.190708650496
    C           -0.281676706997     0.122020193019    -0.050622575939
    C            0.845491591146    -0.477571679002    -0.761713951975
    C           -2.473644891031     1.266741852733     1.287039887854
    C           -0.293506115904     0.304413264434     1.326248880398
    N            2.981201656326    -1.602704860179    -2.206766762371
    O           -3.567949683056     1.809689883249     1.905074780086
    F            0.761042477702    -0.104955365672     2.056895569276
    H           -1.439639356146     0.441904214694    -1.812280995292
    H           -3.365431656274     1.455057087732    -0.639219311071
    H           -0.375889568804    -1.643733829052    -2.093293212399
    H            2.406834168325     0.496400139413     0.353244822514
    H           -1.322032797068     0.935206826198     3.079517193906
    H            1.551105946205    -2.573062019479    -3.321228373643
    H            4.218387781768    -0.535150984366    -0.959658654167
    H           -3.276142987933     2.460979435613     2.549053609933

*** Psi4 exiting successfully. Buy a developer a beer!
