                               Psi4 1.1 release

  ==> Input File <==

--------------------------------------------------------------------------

memory 5 Gb

molecule phepyrF {
  symmetry C1
  0 1
  C      1.885   -1.036   -0.112
  C      0.807   -0.463   0.561
  C      2.921   -1.631   0.608
  C      0.764   -0.484   1.955
  C      3.695   -3.343   3.590
  C      5.255   -1.793   2.616
  C      4.761   -3.900   4.278
  C      6.251   -2.420   3.347
  C      2.878   -1.652   2.002
  C      3.955   -2.270   2.745
  C      1.800   -1.079   2.676
  N      6.037   -3.465   4.178
  F      1.744   -1.089   4.016
  H      1.918   -1.020   -1.198
  H      0.000   -0.000   -0.000
  H      3.755   -2.073   0.068
  H      -0.076   -0.038   2.480
  H      2.694   -3.743   3.716
  H      5.496   -0.958   1.966
  H      4.611   -4.740   4.948
  H      7.281   -2.086   3.282
  units Angstrom
}

dih_string = "3 9 10 5 240"
set optking { opt_coordinates = cartesian
              fixed_dihedral = $dih_string
              dynamic_level = 1
              geom_maxiter = 250
              print_trajectory_xyz_file = True }

optimize('MP2/aug-cc-PVTZ')
--------------------------------------------------------------------------

    Molecular point group: c1
  Charge       = 0
  Multiplicity = 1
  Basis Set: AUG-CC-PVTZ
    Blend: AUG-CC-PVTZ
  Basis Set: (AUG-CC-PVTZ AUX)
    Blend: AUG-CC-PVTZ-JKFIT
  @DF-RHF Final Energy:  -575.28372890747130
    Total Energy =                       -575.2837289074712999
  Basis Set: (AUG-CC-PVTZ AUX)
    Blend: AUG-CC-PVTZ-RI
    Molecular point group: c1
  Basis Set: AUG-CC-PVTZ
    Blend: AUG-CC-PVTZ
  Basis Set: (AUG-CC-PVTZ AUX)
    Blend: AUG-CC-PVTZ-JKFIT
  Basis Set: (AUG-CC-PVTZ AUX)
    Blend: AUG-CC-PVTZ-JKFIT
	 Reference Energy          =    -575.2837289074712999 [Eh]
	 Singles Energy            =      -0.0000000000000001 [Eh]
	 Same-Spin Energy          =      -0.6078554555992931 [Eh]
	 Opposite-Spin Energy      =      -1.8320472180787264 [Eh]
	 Correlation Energy        =      -2.4399026736780196 [Eh]
	 Total Energy              =    -577.7236315811493341 [Eh]
	 SCS Total Energy          =    -577.6848040543654861 [Eh]
  @DF-RHF Final Energy:  -575.28891541108294
    Total Energy =                       -575.2889154110829395
  @DF-RHF Final Energy:  -575.29039771117550
    Total Energy =                       -575.2903977111755012
  @DF-RHF Final Energy:  -575.29027172136375
    Total Energy =                       -575.2902717213637516
  @DF-RHF Final Energy:  -575.29025126373688
    Total Energy =                       -575.2902512637368773
  @DF-RHF Final Energy:  -575.29025004815549
    Total Energy =                       -575.2902500481554853
  @DF-RHF Final Energy:  -575.29025126426131
    Total Energy =                       -575.2902512642613146
  @DF-RHF Final Energy:  -575.29024734057896
    Total Energy =                       -575.2902473405789578
  Charge       = 0
  Multiplicity = 1
  Basis Set: AUG-CC-PVTZ
    Blend: AUG-CC-PVTZ
  Basis Set: (AUG-CC-PVTZ AUX)
    Blend: AUG-CC-PVTZ-JKFIT

    Orbital Energies (a.u.)
    -----------------------

    Doubly Occupied:

       1A    -26.316946     2A    -15.564394     3A    -11.337310
       4A    -11.273683     5A    -11.272802     6A    -11.268849
       7A    -11.261374     8A    -11.256619     9A    -11.256463
      10A    -11.251051    11A    -11.247344    12A    -11.240327
      13A    -11.239145    14A     -1.635906    15A     -1.260785
      16A     -1.186323    17A     -1.115519    18A     -1.039147
      19A     -1.035098    20A     -1.029026    21A     -0.892447
      22A     -0.870386    23A     -0.850743    24A     -0.826238
      25A     -0.756089    26A     -0.723256    27A     -0.713342
      28A     -0.703862    29A     -0.671837    30A     -0.666627
      31A     -0.652861    32A     -0.626436    33A     -0.612583
      34A     -0.598760    35A     -0.592393    36A     -0.550060
      37A     -0.538599    38A     -0.527646    39A     -0.518962
      40A     -0.510728    41A     -0.419464    42A     -0.398418
      43A     -0.355448    44A     -0.348994    45A     -0.340151

  @DF-RHF Final Energy:  -575.29025202592447

   => Energetics <=

    Nuclear Repulsion Energy =            715.5105175062805074
    One-Electron Energy =               -2202.8926530979047129
    Two-Electron Energy =                 912.0918835656998453
    DFT Exchange-Correlation Energy =       0.0000000000000000
    Empirical Dispersion Energy =           0.0000000000000000
    PCM Polarization Energy =               0.0000000000000000
    EFP Energy =                            0.0000000000000000
    Total Energy =                       -575.2902520259244739
  Basis Set: (AUG-CC-PVTZ AUX)
    Blend: AUG-CC-PVTZ-RI
    Molecular point group: c1
  Basis Set: AUG-CC-PVTZ
    Blend: AUG-CC-PVTZ
  Basis Set: (AUG-CC-PVTZ AUX)
    Blend: AUG-CC-PVTZ-JKFIT
  Basis Set: (AUG-CC-PVTZ AUX)
    Blend: AUG-CC-PVTZ-JKFIT
	 Reference Energy          =    -575.2902520259244739 [Eh]
	 Singles Energy            =      -0.0000000000000004 [Eh]
	 Same-Spin Energy          =      -0.6070347579487270 [Eh]
	 Opposite-Spin Energy      =      -1.8296525970809050 [Eh]
	 Correlation Energy        =      -2.4366873550296324 [Eh]
	 Total Energy              =    -577.7269393809541498 [Eh]

	 ================> DF-SCS-MP2 Energies <==================
	-----------------------------------------------------------
	 SCS Same-Spin Scale       =       0.3333333333333333 [-]
	 SCS Opposite-Spin Scale   =       1.2000000000000000 [-]
	 SCS Same-Spin Energy      =      -0.2023449193162423 [Eh]
	 SCS Opposite-Spin Energy  =      -2.1955831164970858 [Eh]
	 SCS Correlation Energy    =      -2.3979280358133286 [Eh]
	 SCS Total Energy          =    -577.6881800617378531 [Eh]
	-----------------------------------------------------------

  -Total Gradient:
     Atom            X                  Y                   Z
    ------   -----------------  -----------------  -----------------
       1       -0.000017564659     0.000082216148    -0.000081678850
       2        0.000075244821    -0.000046590867    -0.000038142754
       3       -0.001235532265    -0.002240996643     0.000127480161
       4        0.000022351339    -0.000134990694     0.000115293684
       5        0.000511243304    -0.001528497817    -0.001857692812
       6        0.000037145177    -0.000112008575    -0.000083560778
       7       -0.000070904423    -0.000105471974     0.000027057523
       8        0.000035405439     0.000076603987     0.000080865132
       9        0.002148532630     0.002640520830    -0.001236489131
      10       -0.001224645234     0.001210810634     0.002961869086
      11       -0.000336888719    -0.000058018359     0.000272954545
      12       -0.000005127965     0.000094964980    -0.000024544511
      13        0.000090050105     0.000050789726    -0.000196918106
      14       -0.000003948915    -0.000021719081     0.000038024000
      15       -0.000038346857     0.000057035705    -0.000006087465
      16        0.000015032256     0.000005616741     0.000021510329
      17       -0.000008151885     0.000080237448    -0.000033312469
      18       -0.000009177315    -0.000020608360    -0.000028488739
      19       -0.000008040603     0.000000042746    -0.000004244356
      20        0.000019176167     0.000003070351    -0.000037060204
      21        0.000004147586    -0.000033006934    -0.000016834290

  **** Optimization is complete! (in 7 steps) ****
    Final optimized geometry and variables:
    Molecular point group: c1

    Geometry (in Angstrom), charge = 0, multiplicity = 1:

    C           -1.359499491158     0.867964581456    -2.657659867815
    C           -2.462627757731     1.400001247361    -2.004356974405
    C           -0.326884563128     0.306293357532    -1.922785397547
    C           -2.533555190444     1.366499646907    -0.619136710935
    C            0.468572214027    -1.426396644055     1.092828312573
    C            2.028625515445     0.050859185862     0.080397794876
    C            1.535260174132    -2.022813406505     1.745985441727
    C            3.030091846726    -0.607386775945     0.777385157830
    C           -0.367891215005     0.270081089102    -0.530232828904
    C            0.709174910725    -0.355598224103     0.239900262192
    C           -1.493085146244     0.799502694375     0.087070492878
    N            2.804004218998    -1.631281261038     1.602743417418
    F           -1.565114762535     0.776189139764     1.430599698762
    H           -1.307850509226     0.883445879865    -3.734680632679
    H           -3.270981926549     1.839279999998    -2.567887499448
    H            0.529114365097    -0.122113027157    -2.422614606856
    H           -3.375089334825     1.773990054862    -0.082907373279
    H           -0.536206637122    -1.789821828129     1.243468874476
    H            2.268949760587     0.877353914990    -0.571610751681
    H            1.365596886442    -2.857286756752     2.411526626279
    H            4.060376757346    -0.298726706710     0.669073044588

*** Psi4 exiting successfully. Buy a developer a beer!
