                              Psi4 1.0.0 Driver

  ==> Input File <==

--------------------------------------------------------------------------

memory 1000 mb

molecule butane {
  symmetry C1
  0 1
  H      1.604   0.760   -8.260
  H      1.745   2.388   -8.880
  H      2.043   1.024   -9.930
  C      2.142   1.395   -8.932
  H      4.169   2.051   -9.210
  H      3.731   1.788   -7.539
  C      3.631   1.416   -8.537
  H      4.989   -0.119   -7.894
  H      3.428   -0.718   -8.400
  C      4.203   -0.012   -8.612
  H      5.156   -1.261   -10.076
  H      5.534   0.436   -10.237
  H      3.973   -0.163   -10.743
  C      4.759   -0.270   -10.024
  units Angstrom
}

dih_string = "4 7 10 14 90"
set optking fixed_dihedral = $dih_string

optimize('MP2/6-31G(d)')
--------------------------------------------------------------------------

    Molecular point group: c1
  Charge       = 0
  Multiplicity = 1
  Basis Set: 6-31G(D)
  Basis Set:
  @DF-RHF Final Energy:  -157.29044253794606
    Total Energy =                       -157.2904425379459781
  Basis Set:
    Molecular point group: c1
  Basis Set: 6-31G(D)
  Basis Set:
  Basis Set:
	 Reference Energy          =    -157.2904425379460633 [Eh]
	 Singles Energy            =      -0.0000000000000000 [Eh]
	 Same-Spin Energy          =      -0.1245611502887237 [Eh]
	 Opposite-Spin Energy      =      -0.4204383693740852 [Eh]
	 Correlation Energy        =      -0.5449995196628089 [Eh]
	 Total Energy              =    -157.8354420576088728 [Eh]
	 SCS Total Energy          =    -157.8364889646245501 [Eh]
  Basis Set: 6-31G(D)
  Basis Set:
  @DF-RHF Final Energy:  -157.29337672459485
    Total Energy =                       -157.2933767245946797
  Basis Set:
  Basis Set: 6-31G(D)
  Basis Set:
  @DF-RHF Final Energy:  -157.29425189808353
    Total Energy =                       -157.2942518980837008
  @DF-RHF Final Energy:  -157.29456473901539
    Total Energy =                       -157.2945647390154420
  @DF-RHF Final Energy:  -157.29463988665054
    Total Energy =                       -157.2946398866506570
  @DF-RHF Final Energy:  -157.29465494386093
    Total Energy =                       -157.2946549438609054
  @DF-RHF Final Energy:  -157.29464204326521
    Total Energy =                       -157.2946420432649859
	 Singles Energy            =      -0.0000000000000000 [Eh]
	 Same-Spin Energy          =      -0.1244590599603340 [Eh]
	 Opposite-Spin Energy      =      -0.4224250489020401 [Eh]
	 Correlation Energy        =      -0.5468841088623742 [Eh]
	 Total Energy              =    -157.8415261521275852 [Eh]
	 SCS Total Energy          =    -157.8430384552677594 [Eh]
  Charge       = 0
  Multiplicity = 1
  Basis Set: 6-31G(D)
  Basis Set:

    Orbital Energies (a.u.)
    -----------------------

    Doubly Occupied:

       1A    -11.215674     2A    -11.215094     3A    -11.210336
       4A    -11.210333     5A     -1.069494     6A     -0.976784
       7A     -0.865793     8A     -0.780659     9A     -0.623129
      10A     -0.614349    11A     -0.576114    12A     -0.538445
      13A     -0.520528    14A     -0.505320    15A     -0.466600
      16A     -0.455352    17A     -0.453163

  @DF-RHF Final Energy:  -157.29464631851118

   => Energetics <=

    Nuclear Repulsion Energy =            131.9909800672149913
    One-Electron Energy =                -471.9769178753984988
    Two-Electron Energy =                 182.6912914896724942
    DFT Exchange-Correlation Energy =       0.0000000000000000
    Empirical Dispersion Energy =           0.0000000000000000
    PCM Polarization Energy =               0.0000000000000000
    EFP Energy =                            0.0000000000000000
    Total Energy =                       -157.2946463185110133
  Basis Set:
    Molecular point group: c1
  Basis Set: 6-31G(D)
  Basis Set:
  Basis Set:
	 Reference Energy          =    -157.2946463185111838 [Eh]
	 Singles Energy            =      -0.0000000000000000 [Eh]
	 Same-Spin Energy          =      -0.1244571869240285 [Eh]
	 Opposite-Spin Energy      =      -0.4224232692478200 [Eh]
	 Correlation Energy        =      -0.5468804561718486 [Eh]
	 Total Energy              =    -157.8415267746830182 [Eh]

	 ================> DF-SCS-MP2 Energies <==================
	-----------------------------------------------------------
	 SCS Same-Spin Scale       =       0.3333333333333333 [-]
	 SCS Opposite-Spin Scale   =       1.2000000000000000 [-]
	 SCS Same-Spin Energy      =      -0.0414857289746762 [Eh]
	 SCS Opposite-Spin Energy  =      -0.5069079230973840 [Eh]
	 SCS Correlation Energy    =      -0.5483936520720601 [Eh]
	 SCS Total Energy          =    -157.8430399705832485 [Eh]
	-----------------------------------------------------------

  -Total Gradient:
     Atom            X                  Y                   Z
    ------   -----------------  -----------------  -----------------
       1        0.000005267448     0.000001609538     0.000006199032
       2       -0.000001490061     0.000006440829    -0.000000886960
       3       -0.000006265460    -0.000001322650    -0.000005051058
       4       -0.000670309087    -0.000543807324     0.002715080491
       5       -0.000012781582    -0.000003872712     0.000006868474
       6       -0.000002144897    -0.000000188492    -0.000002742981
       7        0.001891898489     0.001198541986    -0.003444514329
       8       -0.000000826394    -0.000000829398    -0.000003268902
       9        0.000012619274     0.000003933231    -0.000007455236
      10       -0.003717693804    -0.001747328004    -0.000085522209
      11        0.000000691704    -0.000005804404     0.000000022101
      12        0.000001920236     0.000000392029     0.000008081440
      13       -0.000000656347    -0.000000733121    -0.000008220571
      14        0.002499770479     0.001092968490     0.000821410709

  **** Optimization is complete! (in 8 steps) ****
    Final optimized geometry and variables:
    Molecular point group: c1

    Geometry (in Angstrom), charge = 0, multiplicity = 1:

    H           -2.131789154312     0.112692882940     0.830141090327
    H           -2.001799394647     1.760029206215     0.199076920799
    H           -1.727224294057     0.380298742445    -0.869322781377
    C           -1.570914932135     0.756161032683     0.146436728342
    H            0.453264697337     1.476845114798    -0.115643980430
    H            0.008994654902     1.126754306254     1.543300169551
    C           -0.089840465496     0.762658685467     0.514259073358
    H            1.370909684605    -0.712122102634     1.124687459350
    H           -0.174326501971    -1.393029968319     0.654959112420
    C            0.559389774984    -0.621568901342     0.393595466060
    H            1.551134052745    -1.895443177539    -1.070424249482
    H            1.927633223051    -0.174034611681    -1.224864056964
    H            0.362942671523    -0.790241234078    -1.768459789082
    C            1.131622240122    -0.888159324483    -0.995791215111

*** Psi4 exiting successfully. Buy a developer a beer!
