                               Psi4 1.1 release

  ==> Input File <==

--------------------------------------------------------------------------

memory 1000 mb

molecule butane {
  symmetry C1
  0 1
  H      5.059   2.082   -7.077
  H      3.597   3.038   -7.127
  H      3.581   1.454   -6.389
  C      3.995   2.045   -7.179
  H      2.566   1.379   -8.638
  H      4.044   2.007   -9.327
  C      3.631   1.416   -8.537
  H      3.665   -0.647   -7.940
  H      4.104   -0.384   -9.610
  C      4.203   -0.012   -8.612
  H      6.088   -0.983   -8.270
  H      5.791   0.381   -7.220
  H      6.230   0.644   -8.890
  C      5.691   0.009   -8.218
  units Angstrom
}

dih_string = "14 10 7 4 310"
set optking fixed_dihedral = $dih_string

optimize('MP2/aug-cc-pvtz')
--------------------------------------------------------------------------

    Molecular point group: c1
  Charge       = 0
  Multiplicity = 1
  Basis Set: AUG-CC-PVTZ
    Blend: AUG-CC-PVTZ
  Basis Set: (AUG-CC-PVTZ AUX)
    Blend: AUG-CC-PVTZ-JKFIT
  @DF-RHF Final Energy:  -157.34605942917906
    Total Energy =                       -157.3460594291790642
  Basis Set: (AUG-CC-PVTZ AUX)
    Blend: AUG-CC-PVTZ-RI
    Molecular point group: c1
  Basis Set: AUG-CC-PVTZ
    Blend: AUG-CC-PVTZ
  Basis Set: (AUG-CC-PVTZ AUX)
    Blend: AUG-CC-PVTZ-JKFIT
  Basis Set: (AUG-CC-PVTZ AUX)
    Blend: AUG-CC-PVTZ-JKFIT
	 Reference Energy          =    -157.3460594291790642 [Eh]
	 Singles Energy            =      -0.0000000000000001 [Eh]
	 Same-Spin Energy          =      -0.1667309633274325 [Eh]
	 Opposite-Spin Energy      =      -0.6404359263117375 [Eh]
	 Correlation Energy        =      -0.8071668896391700 [Eh]
	 Total Energy              =    -158.1532263188182412 [Eh]
	 SCS Total Energy          =    -158.1701595285289557 [Eh]
  @DF-RHF Final Energy:  -157.35129392612785
    Total Energy =                       -157.3512939261278518
  @DF-RHF Final Energy:  -157.35270701799908
    Total Energy =                       -157.3527070179990801
  @DF-RHF Final Energy:  -157.35345901373279
    Total Energy =                       -157.3534590137327882
  @DF-RHF Final Energy:  -157.35366730343273
    Total Energy =                       -157.3536673034327293
  @DF-RHF Final Energy:  -157.35371304958292
    Total Energy =                       -157.3537130495829217
  @DF-RHF Final Energy:  -157.35372737965744
    Total Energy =                       -157.3537273796574425
  @DF-RHF Final Energy:  -157.35370838421363
    Total Energy =                       -157.3537083842136326
  @DF-RHF Final Energy:  -157.35370881190875
    Total Energy =                       -157.3537088119087457
  Charge       = 0
  Multiplicity = 1
  Basis Set: AUG-CC-PVTZ
    Blend: AUG-CC-PVTZ
  Basis Set: (AUG-CC-PVTZ AUX)
    Blend: AUG-CC-PVTZ-JKFIT

    Orbital Energies (a.u.)
    -----------------------

    Doubly Occupied:

       1A    -11.211681     2A    -11.211057     3A    -11.205421
       4A    -11.205419     5A     -1.074311     6A     -0.975937
       7A     -0.876497     8A     -0.773093     9A     -0.630014
      10A     -0.621192    11A     -0.571654    12A     -0.536951
      13A     -0.529913    14A     -0.504400    15A     -0.461154
      16A     -0.459071    17A     -0.455807

  @DF-RHF Final Energy:  -157.35370347423739

   => Energetics <=

    Nuclear Repulsion Energy =            133.8474331655414744
    One-Electron Energy =                -475.7951314907068081
    Two-Electron Energy =                 184.5939948509279418
    DFT Exchange-Correlation Energy =       0.0000000000000000
    Empirical Dispersion Energy =           0.0000000000000000
    PCM Polarization Energy =               0.0000000000000000
    EFP Energy =                            0.0000000000000000
    Total Energy =                       -157.3537034742373919
  Basis Set: (AUG-CC-PVTZ AUX)
    Blend: AUG-CC-PVTZ-RI
    Molecular point group: c1
  Basis Set: AUG-CC-PVTZ
    Blend: AUG-CC-PVTZ
  Basis Set: (AUG-CC-PVTZ AUX)
    Blend: AUG-CC-PVTZ-JKFIT
  Basis Set: (AUG-CC-PVTZ AUX)
    Blend: AUG-CC-PVTZ-JKFIT
	 Reference Energy          =    -157.3537034742373919 [Eh]
	 Singles Energy            =      -0.0000000000000001 [Eh]
	 Same-Spin Energy          =      -0.1659491688977102 [Eh]
	 Opposite-Spin Energy      =      -0.6400453296143717 [Eh]
	 Correlation Energy        =      -0.8059944985120819 [Eh]
	 Total Energy              =    -158.1596979727494841 [Eh]

	 ================> DF-SCS-MP2 Energies <==================
	-----------------------------------------------------------
	 SCS Same-Spin Scale       =       0.3333333333333333 [-]
	 SCS Opposite-Spin Scale   =       1.2000000000000000 [-]
	 SCS Same-Spin Energy      =      -0.0553163896325701 [Eh]
	 SCS Opposite-Spin Energy  =      -0.7680543955372460 [Eh]
	 SCS Correlation Energy    =      -0.8233707851698161 [Eh]
	 SCS Total Energy          =    -158.1770742594072203 [Eh]
	-----------------------------------------------------------

  -Total Gradient:
     Atom            X                  Y                   Z
    ------   -----------------  -----------------  -----------------
       1       -0.000007229267    -0.000004641213    -0.000008996243
       2        0.000004540543    -0.000008132412    -0.000002802177
       3        0.000002230507     0.000006459700    -0.000000025457
       4        0.001485600879     0.000661048761    -0.000683552975
       5        0.000013139185    -0.000001671670     0.000000550274
       6        0.000002018719     0.000002986758     0.000001107722
       7       -0.002260624752    -0.001055823761     0.001646822371
       8        0.000002019099    -0.000001605028     0.000002822394
       9       -0.000000169783     0.000006263183     0.000011839565
      10        0.001194258772     0.000682053023    -0.002654786038
      11       -0.000005652927     0.000008156607     0.000002010151
      12       -0.000009927043    -0.000001380339    -0.000007085984
      13        0.000002190362    -0.000004743884     0.000004063412
      14       -0.000422394294    -0.000288969728     0.001688032986

  **** Optimization is complete! (in 10 steps) ****
    Final optimized geometry and variables:
    Molecular point group: c1

    Geometry (in Angstrom), charge = 0, multiplicity = 1:

    H            0.611975731985     1.435937684775     1.042532828059
    H           -0.972558327590     2.189297111923     0.994891127378
    H           -0.766474727612     0.626164545819     1.775848923846
    C           -0.450423404444     1.237451016437     0.931144041235
    H           -1.827543289868     0.488758272426    -0.534889476425
    H           -0.352414640558     1.144903280221    -1.202162822773
    C           -0.749617820200     0.540788914335    -0.384391722441
    H           -0.726191901668    -1.522931088637     0.183090246054
    H           -0.317453434415    -1.240532193903    -1.491713628945
    C           -0.166544502285    -0.861883871943    -0.481203183970
    H            1.701631256418    -1.933772436025    -0.306058829151
    H            1.472112228289    -0.705510018582     0.926523516355
    H            1.888594662877    -0.232885298454    -0.715664255913
    C            1.306815188798    -0.937304530179    -0.122020731614

*** Psi4 exiting successfully. Buy a developer a beer!
