                               Psi4 1.1 release

  ==> Input File <==

--------------------------------------------------------------------------

memory 5 Gb

molecule phepyrOH_neutral {
  symmetry C1
  0 1
  C      1.885   -1.036   -0.112
  C      2.878   -1.652   2.002
  C      0.807   -0.463   0.561
  C      1.800   -1.079   2.676
  C      4.086   -2.206   -1.480
  C      5.074   -2.817   0.626
  C      5.179   -2.787   -2.101
  C      6.123   -3.372   -0.089
  C      2.921   -1.631   0.608
  C      4.040   -2.225   -0.090
  C      0.764   -0.484   1.955
  N      6.203   -3.372   -1.439
  O      -0.288   0.076   2.612
  H      1.904   -1.012   -1.199
  H      3.678   -2.112   2.578
  H      0.003   -0.001   -0.006
  H      1.772   -1.098   3.762
  H      3.298   -1.752   -2.073
  H      5.072   -2.852   1.711
  H      5.263   -2.796   -3.182
  H      6.954   -3.846   0.422
  H      -0.175   -0.018   3.571
  units Angstrom
}

dih_string = "1 9 10 5 0.001"
set optking fixed_dihedral = $dih_string

optimize('MP2/aug-cc-PVTZ')
--------------------------------------------------------------------------

    Molecular point group: c1
  Charge       = 0
  Multiplicity = 1
  Basis Set: AUG-CC-PVTZ
    Blend: AUG-CC-PVTZ
  Basis Set: (AUG-CC-PVTZ AUX)
    Blend: AUG-CC-PVTZ-JKFIT
  @DF-RHF Final Energy:  -551.27925210129126
    Total Energy =                       -551.2792521012912630
  Basis Set: (AUG-CC-PVTZ AUX)
    Blend: AUG-CC-PVTZ-RI
    Molecular point group: c1
  Basis Set: AUG-CC-PVTZ
    Blend: AUG-CC-PVTZ
  Basis Set: (AUG-CC-PVTZ AUX)
    Blend: AUG-CC-PVTZ-JKFIT
  Basis Set: (AUG-CC-PVTZ AUX)
    Blend: AUG-CC-PVTZ-JKFIT
	 Reference Energy          =    -551.2792521012912630 [Eh]
	 Singles Energy            =      -0.0000000000000001 [Eh]
	 Same-Spin Energy          =      -0.6058811808940194 [Eh]
	 Opposite-Spin Energy      =      -1.8332440933180310 [Eh]
	 Correlation Energy        =      -2.4391252742120502 [Eh]
	 Total Energy              =    -553.7183773755033371 [Eh]
	 SCS Total Energy          =    -553.6811054069042939 [Eh]
  @DF-RHF Final Energy:  -551.28727677692859
    Total Energy =                       -551.2872767769285929
  @DF-RHF Final Energy:  -551.28999732485431
    Total Energy =                       -551.2899973248543120
  @DF-RHF Final Energy:  -551.28999271660973
    Total Energy =                       -551.2899927166097314
  Charge       = 0
  Multiplicity = 1
  Basis Set: AUG-CC-PVTZ
    Blend: AUG-CC-PVTZ
  Basis Set: (AUG-CC-PVTZ AUX)
    Blend: AUG-CC-PVTZ-JKFIT

    Orbital Energies (a.u.)
    -----------------------

    Doubly Occupied:

       1A    -20.604498     2A    -15.558067     3A    -11.315629
       4A    -11.270291     5A    -11.270189     6A    -11.268448
       7A    -11.254755     8A    -11.252470     9A    -11.249209
      10A    -11.244690    11A    -11.238195    12A    -11.234459
      13A    -11.234222    14A     -1.421778    15A     -1.256755
      16A     -1.176166    17A     -1.105434    18A     -1.041036
      19A     -1.029199    20A     -1.014434    21A     -0.884340
      22A     -0.875498    23A     -0.840371    24A     -0.814862
      25A     -0.753522    26A     -0.727081    27A     -0.687592
      28A     -0.667237    29A     -0.650682    30A     -0.634803
      31A     -0.613279    32A     -0.609366    33A     -0.605940
      34A     -0.588580    35A     -0.579387    36A     -0.550370
      37A     -0.536762    38A     -0.526871    39A     -0.503580
      40A     -0.492522    41A     -0.416294    42A     -0.403210
      43A     -0.358941    44A     -0.345895    45A     -0.305292

  @DF-RHF Final Energy:  -551.28997047151461

   => Energetics <=

    Nuclear Repulsion Energy =            697.0865019898272976
    One-Electron Energy =               -2130.7285370517756746
    Two-Electron Energy =                 882.3520645904336561
    DFT Exchange-Correlation Energy =       0.0000000000000000
    Empirical Dispersion Energy =           0.0000000000000000
    PCM Polarization Energy =               0.0000000000000000
    EFP Energy =                            0.0000000000000000
    Total Energy =                       -551.2899704715146072
  Basis Set: (AUG-CC-PVTZ AUX)
    Blend: AUG-CC-PVTZ-RI
    Molecular point group: c1
  Basis Set: AUG-CC-PVTZ
    Blend: AUG-CC-PVTZ
  Basis Set: (AUG-CC-PVTZ AUX)
    Blend: AUG-CC-PVTZ-JKFIT
  Basis Set: (AUG-CC-PVTZ AUX)
    Blend: AUG-CC-PVTZ-JKFIT
	 Reference Energy          =    -551.2899704715146072 [Eh]
	 Singles Energy            =      -0.0000000000000003 [Eh]
	 Same-Spin Energy          =      -0.6042829761980401 [Eh]
	 Opposite-Spin Energy      =      -1.8298340921533947 [Eh]
	 Correlation Energy        =      -2.4341170683514353 [Eh]
	 Total Energy              =    -553.7240875398659909 [Eh]

	 ================> DF-SCS-MP2 Energies <==================
	-----------------------------------------------------------
	 SCS Same-Spin Scale       =       0.3333333333333333 [-]
	 SCS Opposite-Spin Scale   =       1.2000000000000000 [-]
	 SCS Same-Spin Energy      =      -0.2014276587326800 [Eh]
	 SCS Opposite-Spin Energy  =      -2.1958009105840737 [Eh]
	 SCS Correlation Energy    =      -2.3972285693167543 [Eh]
	 SCS Total Energy          =    -553.6871990408313877 [Eh]
	-----------------------------------------------------------

  -Total Gradient:
     Atom            X                  Y                   Z
    ------   -----------------  -----------------  -----------------
       1        0.000051409928    -0.000057316802     0.000043990071
       2       -0.000040621954     0.000008734032     0.000026888286
       3       -0.000094468264     0.000056145664     0.000017798951
       4        0.000064520267    -0.000038200551     0.000003356465
       5        0.000012027025    -0.000032936821    -0.000044404435
       6       -0.000027940991     0.000003414955    -0.000004347928
       7        0.000099146050     0.000075798114    -0.000027659139
       8        0.000051335721    -0.000027565907    -0.000046339233
       9       -0.000033351173     0.000043479802    -0.000073216265
      10        0.000032959002     0.000001295822     0.000014487380
      11        0.000017702403     0.000011876794    -0.000014250732
      12       -0.000039123967    -0.000026908286     0.000015425934
      13       -0.000020356018     0.000003381300    -0.000031655939
      14       -0.000055234093     0.000030755499     0.000012194088
      15        0.000040738544    -0.000024502519     0.000030497687
      16        0.000005201136     0.000000767582    -0.000037295732
      17       -0.000022562173     0.000013217576     0.000016478066
      18        0.000001932402    -0.000016514345    -0.000009054248
      19       -0.000027366978     0.000010648489     0.000054523052
      20       -0.000020876587    -0.000033568221     0.000012633805
      21       -0.000010591226     0.000009901609    -0.000000967797
      22        0.000015520944    -0.000011903790     0.000040917674

  **** Optimization is complete! (in 5 steps) ****
    Final optimized geometry and variables:
    Molecular point group: c1

    Geometry (in Angstrom), charge = 0, multiplicity = 1:

    C           -1.281799529150     0.724076184225    -0.541781261371
    C           -0.294749945424     0.112832147198     1.537022891555
    C           -2.352460906279     1.292801908728     0.122944415684
    C           -1.361867589593     0.679141009835     2.213676326814
    C            0.995165175839    -0.485068478521    -1.961098869603
    C            1.970460751662    -1.089376568486     0.100017448338
    C            2.083790582683    -1.064654213332    -2.591673693244
    C            3.019550883726    -1.644813071913    -0.613640119231
    C           -0.225487629491     0.119785713014     0.143905051603
    C            0.908430722480    -0.482156118999    -0.569312140984
    C           -2.399022846267     1.273669202576     1.509261017119
    N            3.097330284699    -1.644690564801    -1.945887069296
    O           -3.476106059678     1.847754589480     2.110762933220
    H           -1.282754424310     0.759405908480    -1.618549868483
    H            0.490265846697    -0.338774299450     2.120681752793
    H           -3.160493637924     1.755814160227    -0.422408223796
    H           -1.384921320355     0.656835287753     3.294861316151
    H            0.226581799202    -0.041925919078    -2.572538974609
    H            2.000652256919    -1.140857693337     1.175959438597
    H            2.142368815770    -1.062809774452    -3.671519997128
    H            3.839016491976    -2.113776962951    -0.086250799137
    H           -3.382949188521     1.765410819512     3.064784973066

*** Psi4 exiting successfully. Buy a developer a beer!
