                              Psi4 1.0.0 Driver

  ==> Input File <==

--------------------------------------------------------------------------

memory 1000 mb

molecule butane {
  symmetry C1
  0 1
  H      1.604   0.760   -8.260
  H      1.745   2.388   -8.880
  H      2.043   1.024   -9.930
  C      2.142   1.395   -8.932
  H      4.169   2.051   -9.210
  H      3.731   1.788   -7.539
  C      3.631   1.416   -8.537
  H      3.665   -0.647   -7.940
  H      4.104   -0.384   -9.610
  C      4.203   -0.012   -8.612
  H      6.088   -0.983   -8.269
  H      5.790   0.381   -7.219
  H      6.230   0.644   -8.889
  C      5.691   0.009   -8.217
  units Angstrom
}

dih_string = "4 7 10 14 180.001"
set optking fixed_dihedral = $dih_string

optimize('B3LYP/cc-PVDZ')
--------------------------------------------------------------------------

    Molecular point group: c1
  Charge       = 0
  Multiplicity = 1
  Basis Set: CC-PVDZ
   => B3LYP Composite Functional <=
  Basis Set:
  @DF-RKS Final Energy:  -158.44938919407025
    Total Energy =                       -158.4493891940702497
    Molecular point group: c1
  Basis Set: CC-PVDZ
  Basis Set:
   => B3LYP Composite Functional <=
  Basis Set: CC-PVDZ
   => B3LYP Composite Functional <=
  Basis Set:
  @DF-RKS Final Energy:  -158.45523637819574
    Total Energy =                       -158.4552363781957354
  Basis Set: CC-PVDZ
  Basis Set:
   => B3LYP Composite Functional <=
  Basis Set: CC-PVDZ
   => B3LYP Composite Functional <=
  Basis Set:
  @DF-RKS Final Energy:  -158.45793527587807
    Total Energy =                       -158.4579352758780715
  Basis Set: CC-PVDZ
  Basis Set:
   => B3LYP Composite Functional <=
  Basis Set:
  @DF-RKS Final Energy:  -158.45873779608513
    Total Energy =                       -158.4587377960851313
  Basis Set: CC-PVDZ
  Basis Set:
   => B3LYP Composite Functional <=
  Basis Set: CC-PVDZ
   => B3LYP Composite Functional <=
  Basis Set:
  @DF-RKS Final Energy:  -158.45888424613361
    Total Energy =                       -158.4588842461336071
  Basis Set: CC-PVDZ
  Basis Set:
   => B3LYP Composite Functional <=
  Charge       = 0
  Multiplicity = 1
  Basis Set: CC-PVDZ
   => B3LYP Composite Functional <=
  Basis Set:

    Orbital Energies (a.u.)
    -----------------------

    Doubly Occupied:

       1A    -10.180293     2A    -10.180125     3A    -10.175926
       4A    -10.175918     5A     -0.790706     6A     -0.720642
       7A     -0.627089     8A     -0.571979     9A     -0.463515
      10A     -0.422504    11A     -0.416252    12A     -0.406389
      13A     -0.365577    14A     -0.346680    15A     -0.332600
      16A     -0.320674    17A     -0.319431

  @DF-RKS Final Energy:  -158.45888802548231

   => Energetics <=

    Nuclear Repulsion Energy =            129.9330558720546946
    One-Electron Energy =                -468.3531863434093339
    Two-Electron Energy =                 200.5447200113030704
    DFT Exchange-Correlation Energy =     -20.5834775654307407
    Empirical Dispersion Energy =           0.0000000000000000
    PCM Polarization Energy =               0.0000000000000000
    EFP Energy =                            0.0000000000000000
    Total Energy =                       -158.4588880254823096
    Molecular point group: c1
  Basis Set: CC-PVDZ
  Basis Set:
   => B3LYP Composite Functional <=

  -Total Gradient:
     Atom            X                  Y                   Z
    ------   -----------------  -----------------  -----------------
       1       -0.000031774487    -0.000018718864     0.000022040111
       2       -0.000031834677     0.000046155374    -0.000001066803
       3       -0.000015717966    -0.000009912643    -0.000040599883
       4        0.000062075697    -0.000022183146     0.000013718472
       5        0.000004785965    -0.000020377142    -0.000013257125
       6        0.000000904475    -0.000023229382     0.000007293532
       7       -0.000008484584     0.000074367653     0.000011204904
       8       -0.000006334988     0.000020004372     0.000012888731
       9        0.000000483075     0.000023078352    -0.000008249505
      10        0.000007395506    -0.000074022045    -0.000009119403
      11        0.000032241945    -0.000048266637     0.000000960498
      12        0.000015025639     0.000009128881     0.000039151300
      13        0.000030591087     0.000018266623    -0.000021808767
      14       -0.000059356673     0.000025709496    -0.000013158782

  **** Optimization is complete! (in 6 steps) ****
    Final optimized geometry and variables:
    Molecular point group: c1

    Geometry (in Angstrom), charge = 0, multiplicity = 1:

    H           -2.391576302973     0.062946613823     0.311071159664
    H           -2.224018548302     1.721022946946    -0.313427266601
    H           -1.944578961101     0.330956435601    -1.389033831510
    C           -1.797718674232     0.705757600358    -0.361393655571
    H            0.244163150815     1.376385383596    -0.641857636570
    H           -0.199489602632     1.110339978080     1.045632324629
    C           -0.317392229990     0.697031560446     0.026437093545
    H           -0.244192562647    -1.376398930016     0.641790526185
    H            0.199546382679    -1.110312963168    -1.045673091590
    C            0.317397382949    -0.697029007241    -0.026460407434
    H            2.224020687704    -1.721024418580     0.313419874272
    H            1.944538180854    -0.331002709733     1.389076035373
    H            2.391578823740    -0.062916560380    -0.311006863065
    C            1.797714256302    -0.705759798822     0.361417705946

*** Psi4 exiting successfully. Buy a developer a beer!
