                               Psi4 1.1 release

  ==> Input File <==

--------------------------------------------------------------------------

memory 1000 mb

molecule butane {
  symmetry C1
  0 1
  H      1.604   0.760   -8.260
  H      1.745   2.388   -8.880
  H      2.043   1.024   -9.930
  C      2.142   1.395   -8.932
  H      4.169   2.051   -9.210
  H      3.731   1.788   -7.539
  C      3.631   1.416   -8.537
  H      3.665   -0.647   -7.940
  H      4.104   -0.384   -9.610
  C      4.203   -0.012   -8.612
  H      6.263   -0.510   -8.958
  H      5.816   -0.470   -7.270
  H      6.029   1.022   -8.153
  C      5.691   0.009   -8.218
  units Angstrom
}

dih_string = "7 10 14 13 350"
set optking fixed_dihedral = $dih_string

optimize('MP2/aug-cc-pvtz')
--------------------------------------------------------------------------

    Molecular point group: c1
  Charge       = 0
  Multiplicity = 1
  Basis Set: AUG-CC-PVTZ
    Blend: AUG-CC-PVTZ
  Basis Set: (AUG-CC-PVTZ AUX)
    Blend: AUG-CC-PVTZ-JKFIT
  @DF-RHF Final Energy:  -157.34753179927012
    Total Energy =                       -157.3475317992701150
  Basis Set: (AUG-CC-PVTZ AUX)
    Blend: AUG-CC-PVTZ-RI
    Molecular point group: c1
  Basis Set: AUG-CC-PVTZ
    Blend: AUG-CC-PVTZ
  Basis Set: (AUG-CC-PVTZ AUX)
    Blend: AUG-CC-PVTZ-JKFIT
  Basis Set: (AUG-CC-PVTZ AUX)
    Blend: AUG-CC-PVTZ-JKFIT
	 Reference Energy          =    -157.3475317992701150 [Eh]
	 Singles Energy            =      -0.0000000000000001 [Eh]
	 Same-Spin Energy          =      -0.1654810768838691 [Eh]
	 Opposite-Spin Energy      =      -0.6394454605120853 [Eh]
	 Correlation Energy        =      -0.8049265373959545 [Eh]
	 Total Energy              =    -158.1524583366660579 [Eh]
	 SCS Total Energy          =    -158.1700267108459173 [Eh]
  @DF-RHF Final Energy:  -157.35045961799406
    Total Energy =                       -157.3504596179940620
  @DF-RHF Final Energy:  -157.35137232636691
    Total Energy =                       -157.3513723263669135
  @DF-RHF Final Energy:  -157.35167446925612
    Total Energy =                       -157.3516744692561247
  @DF-RHF Final Energy:  -157.35166463912466
    Total Energy =                       -157.3516646391246638
  Charge       = 0
  Multiplicity = 1
  Basis Set: AUG-CC-PVTZ
    Blend: AUG-CC-PVTZ
  Basis Set: (AUG-CC-PVTZ AUX)
    Blend: AUG-CC-PVTZ-JKFIT

    Orbital Energies (a.u.)
    -----------------------

    Doubly Occupied:

       1A    -11.211678     2A    -11.210867     3A    -11.205878
       4A    -11.205520     5A     -1.072769     6A     -0.980351
       7A     -0.861983     8A     -0.788943     9A     -0.638796
      10A     -0.583905    11A     -0.577858    12A     -0.569236
      13A     -0.511660    14A     -0.496594    15A     -0.470458
      16A     -0.457065    17A     -0.455987

  @DF-RHF Final Energy:  -157.35167204288035

   => Energetics <=

    Nuclear Repulsion Energy =            131.2977435787817910
    One-Electron Energy =                -470.6997386421622878
    Two-Electron Energy =                 182.0503230205001159
    DFT Exchange-Correlation Energy =       0.0000000000000000
    Empirical Dispersion Energy =           0.0000000000000000
    PCM Polarization Energy =               0.0000000000000000
    EFP Energy =                            0.0000000000000000
    Total Energy =                       -157.3516720428803524
  Basis Set: (AUG-CC-PVTZ AUX)
    Blend: AUG-CC-PVTZ-RI
    Molecular point group: c1
  Basis Set: AUG-CC-PVTZ
    Blend: AUG-CC-PVTZ
  Basis Set: (AUG-CC-PVTZ AUX)
    Blend: AUG-CC-PVTZ-JKFIT
  Basis Set: (AUG-CC-PVTZ AUX)
    Blend: AUG-CC-PVTZ-JKFIT
	 Reference Energy          =    -157.3516720428803524 [Eh]
	 Singles Energy            =      -0.0000000000000001 [Eh]
	 Same-Spin Energy          =      -0.1654503128617222 [Eh]
	 Opposite-Spin Energy      =      -0.6398492020232082 [Eh]
	 Correlation Energy        =      -0.8052995148849305 [Eh]
	 Total Energy              =    -158.1569715577652744 [Eh]

	 ================> DF-SCS-MP2 Energies <==================
	-----------------------------------------------------------
	 SCS Same-Spin Scale       =       0.3333333333333333 [-]
	 SCS Opposite-Spin Scale   =       1.2000000000000000 [-]
	 SCS Same-Spin Energy      =      -0.0551501042872407 [Eh]
	 SCS Opposite-Spin Energy  =      -0.7678190424278498 [Eh]
	 SCS Correlation Energy    =      -0.8229691467150907 [Eh]
	 SCS Total Energy          =    -158.1746411895954338 [Eh]
	-----------------------------------------------------------

  -Total Gradient:
     Atom            X                  Y                   Z
    ------   -----------------  -----------------  -----------------
       1        0.000006649138     0.000006861320    -0.000009335784
       2        0.000001411257    -0.000014811631    -0.000004533689
       3       -0.000007166877     0.000003439021     0.000016478181
       4        0.000014858831     0.000006141081    -0.000012084511
       5       -0.000003831589     0.000006777833     0.000020149685
       6        0.000014513504    -0.000004859944    -0.000014553255
       7        0.000343927257     0.000212789206    -0.001366987562
       8       -0.000011719812     0.000013531932    -0.000006506220
       9       -0.000001860521    -0.000016832041     0.000030578468
      10       -0.000605756212    -0.000291894533     0.002363591226
      11        0.000007162165     0.000021483140    -0.000008641135
      12       -0.000009140750     0.000000498548    -0.000039683317
      13       -0.000510154421     0.000029763754     0.001889413534
      14        0.000761108030     0.000027112311    -0.002857885623

  **** Optimization is complete! (in 6 steps) ****
    Final optimized geometry and variables:
    Molecular point group: c1

    Geometry (in Angstrom), charge = 0, multiplicity = 1:

    H           -2.350847589530     0.065537749941     0.328711833598
    H           -2.203073806321     1.698001189609    -0.312816499892
    H           -1.920772162026     0.310156936967    -1.358118405028
    C           -1.780293951752     0.696768421151    -0.350188647459
    H            0.243352948346     1.352688664941    -0.647678221451
    H           -0.183538239579     1.100717678652     1.028543832622
    C           -0.310697007061     0.694947808380     0.023410111918
    H           -0.263591083029    -1.360366891285     0.610325357735
    H            0.186466896237    -1.073957573942    -1.048158572913
    C            0.305523811154    -0.690800449266    -0.034320744414
    H            2.397955409694    -1.240088284484    -0.356560681675
    H            1.933276541793    -1.164615629364     1.332176398065
    H            2.169070416557     0.314292690216     0.436734920793
    C            1.784770124769    -0.701114534385     0.359994035040

*** Psi4 exiting successfully. Buy a developer a beer!
