                               Psi4 1.1 release

  ==> Input File <==

--------------------------------------------------------------------------

memory 1000 mb

molecule butane {
  symmetry C1
  0 1
  H      4.894   2.174   -10.101
  H      4.271   3.408   -9.031
  H      5.561   2.358   -8.497
  C      4.669   2.415   -9.083
  H      3.407   1.657   -7.519
  H      2.737   1.473   -9.122
  C      3.631   1.416   -8.537
  H      3.665   -0.647   -7.940
  H      4.104   -0.384   -9.610
  C      4.203   -0.012   -8.612
  H      6.088   -0.983   -8.270
  H      5.791   0.381   -7.220
  H      6.230   0.644   -8.890
  C      5.691   0.009   -8.218
  units Angstrom
}

dih_string = "14 10 7 4 40"
set optking fixed_dihedral = $dih_string

optimize('MP2/aug-cc-pvtz')
--------------------------------------------------------------------------

    Molecular point group: c1
  Charge       = 0
  Multiplicity = 1
  Basis Set: AUG-CC-PVTZ
    Blend: AUG-CC-PVTZ
  Basis Set: (AUG-CC-PVTZ AUX)
    Blend: AUG-CC-PVTZ-JKFIT
  @DF-RHF Final Energy:  -157.34312784651843
    Total Energy =                       -157.3431278465184278
  Basis Set: (AUG-CC-PVTZ AUX)
    Blend: AUG-CC-PVTZ-RI
    Molecular point group: c1
  Basis Set: AUG-CC-PVTZ
    Blend: AUG-CC-PVTZ
  Basis Set: (AUG-CC-PVTZ AUX)
    Blend: AUG-CC-PVTZ-JKFIT
  Basis Set: (AUG-CC-PVTZ AUX)
    Blend: AUG-CC-PVTZ-JKFIT
	 Reference Energy          =    -157.3431278465184278 [Eh]
	 Singles Energy            =      -0.0000000000000001 [Eh]
	 Same-Spin Energy          =      -0.1669681438938218 [Eh]
	 Opposite-Spin Energy      =      -0.6410245481819249 [Eh]
	 Correlation Energy        =      -0.8079926920757469 [Eh]
	 Total Energy              =    -158.1511205385941707 [Eh]
	 SCS Total Energy          =    -158.1680133523013581 [Eh]
  @DF-RHF Final Energy:  -157.34931756281412
    Total Energy =                       -157.3493175628141216
  @DF-RHF Final Energy:  -157.35106942585230
    Total Energy =                       -157.3510694258523017
  @DF-RHF Final Energy:  -157.35192541491625
    Total Energy =                       -157.3519254149162521
  @DF-RHF Final Energy:  -157.35221456832744
    Total Energy =                       -157.3522145683274402
  @DF-RHF Final Energy:  -157.35227691877830
    Total Energy =                       -157.3522769187783013
  @DF-RHF Final Energy:  -157.35230201359497
    Total Energy =                       -157.3523020135949650
  Charge       = 0
  Multiplicity = 1
  Basis Set: AUG-CC-PVTZ
    Blend: AUG-CC-PVTZ
  Basis Set: (AUG-CC-PVTZ AUX)
    Blend: AUG-CC-PVTZ-JKFIT

    Orbital Energies (a.u.)
    -----------------------

    Doubly Occupied:

       1A    -11.211749     2A    -11.211137     3A    -11.205391
       4A    -11.205388     5A     -1.073445     6A     -0.975679
       7A     -0.877851     8A     -0.771248     9A     -0.632011
      10A     -0.620198    11A     -0.570153    12A     -0.538715
      13A     -0.527966    14A     -0.505864    15A     -0.462878
      16A     -0.459068    17A     -0.451888

  @DF-RHF Final Energy:  -157.35229828143520

   => Energetics <=

    Nuclear Repulsion Energy =            133.9042125218884109
    One-Electron Energy =                -475.9117646618002482
    Two-Electron Energy =                 184.6552538584766125
    DFT Exchange-Correlation Energy =       0.0000000000000000
    Empirical Dispersion Energy =           0.0000000000000000
    PCM Polarization Energy =               0.0000000000000000
    EFP Energy =                            0.0000000000000000
    Total Energy =                       -157.3522982814351963
  Basis Set: (AUG-CC-PVTZ AUX)
    Blend: AUG-CC-PVTZ-RI
    Molecular point group: c1
  Basis Set: AUG-CC-PVTZ
    Blend: AUG-CC-PVTZ
  Basis Set: (AUG-CC-PVTZ AUX)
    Blend: AUG-CC-PVTZ-JKFIT
  Basis Set: (AUG-CC-PVTZ AUX)
    Blend: AUG-CC-PVTZ-JKFIT
	 Reference Energy          =    -157.3522982814351963 [Eh]
	 Singles Energy            =      -0.0000000000000000 [Eh]
	 Same-Spin Energy          =      -0.1659614863875358 [Eh]
	 Opposite-Spin Energy      =      -0.6403042993972745 [Eh]
	 Correlation Energy        =      -0.8062657857848103 [Eh]
	 Total Energy              =    -158.1585640672199986 [Eh]

	 ================> DF-SCS-MP2 Energies <==================
	-----------------------------------------------------------
	 SCS Same-Spin Scale       =       0.3333333333333333 [-]
	 SCS Opposite-Spin Scale   =       1.2000000000000000 [-]
	 SCS Same-Spin Energy      =      -0.0553204954625119 [Eh]
	 SCS Opposite-Spin Energy  =      -0.7683651592767294 [Eh]
	 SCS Correlation Energy    =      -0.8236856547392414 [Eh]
	 SCS Total Energy          =    -158.1759839361744469 [Eh]
	-----------------------------------------------------------

  -Total Gradient:
     Atom            X                  Y                   Z
    ------   -----------------  -----------------  -----------------
       1       -0.000024865210    -0.000000142937     0.000015148008
       2        0.000006867612    -0.000012750178     0.000022681703
       3        0.000021882592    -0.000001394461    -0.000004806792
       4        0.001221195235     0.000409010108     0.003031778586
       5       -0.000017619557     0.000034286475    -0.000034554433
       6       -0.000023168168    -0.000034767529    -0.000000316995
       7       -0.001280863487    -0.000468363676    -0.005514351780
       8       -0.000040542281     0.000010051035     0.000003538389
       9        0.000013476349    -0.000035326343     0.000034655581
      10       -0.000765900171    -0.000346809466     0.005618211921
      11       -0.000005038265     0.000013826778    -0.000022981503
      12       -0.000020249308    -0.000017351829    -0.000012783623
      13        0.000015789946     0.000016108663     0.000002503545
      14        0.000899034713     0.000433623360    -0.003138722605

  **** Optimization is complete! (in 8 steps) ****
    Final optimized geometry and variables:
    Molecular point group: c1

    Geometry (in Angstrom), charge = 0, multiplicity = 1:

    H            0.378566781697     1.278001775648    -1.499387335338
    H           -0.438979708828     2.491020161267    -0.523333679596
    H            0.928515044923     1.610125712839     0.137632482221
    C            0.046643885275     1.518431420948    -0.489964893455
    H           -1.162844463396     0.720187319812     1.070488022871
    H           -1.836036658059     0.483356819601    -0.521712764413
    C           -0.904357982532     0.461112534759     0.042214965224
    H           -0.949571500967    -1.592530364625     0.662572235983
    H           -0.439444566909    -1.358182025758    -0.989467665378
    C           -0.340810929948    -0.956915618241     0.020748551464
    H            1.436940998149    -2.093652850656     0.472855342950
    H            1.280635169723    -0.617346799147     1.415494756581
    H            1.763192672132    -0.538323182910    -0.273731517218
    C            1.117817242287    -1.054765909630     0.431082238483

*** Psi4 exiting successfully. Buy a developer a beer!
