                              Psi4 1.0.0 Driver

  ==> Input File <==

--------------------------------------------------------------------------

memory 1000 mb

molecule butane {
  symmetry C1
  0 1
  H      1.604   0.760   -8.260
  H      1.745   2.388   -8.880
  H      2.043   1.024   -9.930
  C      2.142   1.395   -8.932
  H      4.169   2.051   -9.210
  H      3.731   1.788   -7.539
  C      3.631   1.416   -8.537
  H      3.665   -0.647   -7.940
  H      4.104   -0.384   -9.610
  C      4.203   -0.012   -8.612
  H      6.088   -0.983   -8.269
  H      5.790   0.381   -7.219
  H      6.230   0.644   -8.889
  C      5.691   0.009   -8.217
  units Angstrom
}

dih_string = "4 7 10 14 180.001"
set optking fixed_dihedral = $dih_string

optimize('MP2/6-31G(d)')
--------------------------------------------------------------------------

    Molecular point group: c1
  Charge       = 0
  Multiplicity = 1
  Basis Set: 6-31G(D)
  Basis Set:
  @DF-RHF Final Energy:  -157.29412587969438
    Total Energy =                       -157.2941258796944055
  Basis Set:
    Molecular point group: c1
  Basis Set: 6-31G(D)
  Basis Set:
  Basis Set:
	 Reference Energy          =    -157.2941258796943771 [Eh]
	 Singles Energy            =      -0.0000000000000000 [Eh]
	 Same-Spin Energy          =      -0.1243448366672573 [Eh]
	 Opposite-Spin Energy      =      -0.4201068722497081 [Eh]
	 Correlation Energy        =      -0.5444517089169654 [Eh]
	 Total Energy              =    -157.8385775886113436 [Eh]
	 SCS Total Energy          =    -157.8397024052831057 [Eh]
  Basis Set: 6-31G(D)
  Basis Set:
  @DF-RHF Final Energy:  -157.29697906194826
    Total Energy =                       -157.2969790619483490
  Basis Set:
  Basis Set: 6-31G(D)
  Basis Set:
  @DF-RHF Final Energy:  -157.29772851464949
    Total Energy =                       -157.2977285146493216
  @DF-RHF Final Energy:  -157.29789968652744
    Total Energy =                       -157.2978996865272734
	 Singles Energy            =      -0.0000000000000000 [Eh]
	 Same-Spin Energy          =      -0.1244140697957933 [Eh]
	 Opposite-Spin Energy      =      -0.4222101630838822 [Eh]
	 Correlation Energy        =      -0.5466242328796755 [Eh]
	 Total Energy              =    -157.8445239194071235 [Eh]
	 SCS Total Energy          =    -157.8460232388266888 [Eh]
  Charge       = 0
  Multiplicity = 1
  Basis Set: 6-31G(D)
  Basis Set:

    Orbital Energies (a.u.)
    -----------------------

    Doubly Occupied:

       1A    -11.215770     2A    -11.215165     3A    -11.210306
       4A    -11.210302     5A     -1.070638     6A     -0.979809
       7A     -0.859458     8A     -0.786154     9A     -0.637989
      10A     -0.583775    11A     -0.574903    12A     -0.566727
      13A     -0.513760    14A     -0.493864    15A     -0.468912
      16A     -0.460023    17A     -0.455926

  @DF-RHF Final Energy:  -157.29788790551356

   => Energetics <=

    Nuclear Repulsion Energy =            130.8121689145885966
    One-Electron Energy =                -469.6131530420486797
    Two-Electron Energy =                 181.5030962219465209
    DFT Exchange-Correlation Energy =       0.0000000000000000
    Empirical Dispersion Energy =           0.0000000000000000
    PCM Polarization Energy =               0.0000000000000000
    EFP Energy =                            0.0000000000000000
    Total Energy =                       -157.2978879055135621
  Basis Set:
    Molecular point group: c1
  Basis Set: 6-31G(D)
  Basis Set:
  Basis Set:
	 Reference Energy          =    -157.2978879055135621 [Eh]
	 Singles Energy            =      -0.0000000000000000 [Eh]
	 Same-Spin Energy          =      -0.1244475942147441 [Eh]
	 Opposite-Spin Energy      =      -0.4221956770378366 [Eh]
	 Correlation Energy        =      -0.5466432712525806 [Eh]
	 Total Energy              =    -157.8445311767661394 [Eh]

	 ================> DF-SCS-MP2 Energies <==================
	-----------------------------------------------------------
	 SCS Same-Spin Scale       =       0.3333333333333333 [-]
	 SCS Opposite-Spin Scale   =       1.2000000000000000 [-]
	 SCS Same-Spin Energy      =      -0.0414825314049147 [Eh]
	 SCS Opposite-Spin Energy  =      -0.5066348124454039 [Eh]
	 SCS Correlation Energy    =      -0.5481173438503185 [Eh]
	 SCS Total Energy          =    -157.8460052493638841 [Eh]
	-----------------------------------------------------------

  -Total Gradient:
     Atom            X                  Y                   Z
    ------   -----------------  -----------------  -----------------
       1       -0.000037007588    -0.000043642254     0.000049837287
       2       -0.000005655569     0.000074273473     0.000010143569
       3       -0.000006115131    -0.000026060200    -0.000074936614
       4        0.000136620289    -0.000066349799     0.000025868731
       5        0.000018578823    -0.000001397922    -0.000040676240
       6       -0.000000285532    -0.000011791291     0.000044046989
       7       -0.000005126615     0.000018364963     0.000006407599
       8       -0.000021149538     0.000000305492     0.000040811282
       9        0.000002574848     0.000011677731    -0.000045235544
      10        0.000001950184    -0.000017085260    -0.000004124727
      11        0.000007013853    -0.000078336165    -0.000010256237
      12        0.000004950393     0.000024837861     0.000072560251
      13        0.000035439040     0.000042843329    -0.000049231295
      14       -0.000131787459     0.000072360041    -0.000025215052

  **** Optimization is complete! (in 5 steps) ****
    Final optimized geometry and variables:
    Molecular point group: c1

    Geometry (in Angstrom), charge = 0, multiplicity = 1:

    H           -2.366674860016     0.054359213710     0.310665814793
    H           -2.213632704214     1.701929371842    -0.313486023935
    H           -1.922370048532     0.320967776096    -1.379132004494
    C           -1.787225982893     0.695898227736    -0.360097455682
    H            0.244171877237     1.365555209516    -0.638394192203
    H           -0.197086597750     1.100690470286     1.039972069342
    C           -0.312814801478     0.694830634285     0.027406829187
    H           -0.244208671157    -1.365573862389     0.638316472927
    H            0.197154913963    -1.100656285194    -1.040019367649
    C            0.312818620894    -0.694827199158    -0.027432709221
    H            2.213640223854    -1.701932333336     0.313471787279
    H            1.922323932449    -0.321026941116     1.379180821479
    H            2.366677070039    -0.054320424265    -0.310589328397
    C            1.787222571993    -0.695901007369     0.360124507385

*** Psi4 exiting successfully. Buy a developer a beer!
