                               Psi4 1.1 release

  ==> Input File <==

--------------------------------------------------------------------------

memory 1000 mb

molecule butane {
  symmetry C1
  0 1
  H      1.604   0.760   -8.260
  H      1.745   2.388   -8.880
  H      2.043   1.024   -9.930
  C      2.142   1.395   -8.932
  H      4.169   2.051   -9.210
  H      3.731   1.788   -7.539
  C      3.631   1.416   -8.537
  H      3.665   -0.647   -7.940
  H      4.104   -0.384   -9.610
  C      4.203   -0.012   -8.612
  H      6.074   1.003   -8.322
  H      6.239   -0.652   -8.856
  H      5.796   -0.309   -7.202
  C      5.691   0.009   -8.218
  units Angstrom
}

dih_string = "7 10 14 13 100"
set optking fixed_dihedral = $dih_string

optimize('MP2/aug-cc-pvtz')
--------------------------------------------------------------------------

    Molecular point group: c1
  Charge       = 0
  Multiplicity = 1
  Basis Set: AUG-CC-PVTZ
    Blend: AUG-CC-PVTZ
  Basis Set: (AUG-CC-PVTZ AUX)
    Blend: AUG-CC-PVTZ-JKFIT
  @DF-RHF Final Energy:  -157.34860067789373
    Total Energy =                       -157.3486006778937281
  Basis Set: (AUG-CC-PVTZ AUX)
    Blend: AUG-CC-PVTZ-RI
    Molecular point group: c1
  Basis Set: AUG-CC-PVTZ
    Blend: AUG-CC-PVTZ
  Basis Set: (AUG-CC-PVTZ AUX)
    Blend: AUG-CC-PVTZ-JKFIT
  Basis Set: (AUG-CC-PVTZ AUX)
    Blend: AUG-CC-PVTZ-JKFIT
	 Reference Energy          =    -157.3486006778937281 [Eh]
	 Singles Energy            =      -0.0000000000000000 [Eh]
	 Same-Spin Energy          =      -0.1654615391283903 [Eh]
	 Opposite-Spin Energy      =      -0.6393233578276447 [Eh]
	 Correlation Energy        =      -0.8047848969560351 [Eh]
	 Total Energy              =    -158.1533855748497501 [Eh]
	 SCS Total Energy          =    -158.1709425536630249 [Eh]
  @DF-RHF Final Energy:  -157.35144487152439
    Total Energy =                       -157.3514448715243930
  @DF-RHF Final Energy:  -157.35233673678385
    Total Energy =                       -157.3523367367838546
  @DF-RHF Final Energy:  -157.35265217062056
    Total Energy =                       -157.3526521706205585
  @DF-RHF Final Energy:  -157.35266452566640
    Total Energy =                       -157.3526645256663983
  Charge       = 0
  Multiplicity = 1
  Basis Set: AUG-CC-PVTZ
    Blend: AUG-CC-PVTZ
  Basis Set: (AUG-CC-PVTZ AUX)
    Blend: AUG-CC-PVTZ-JKFIT

    Orbital Energies (a.u.)
    -----------------------

    Doubly Occupied:

       1A    -11.211566     2A    -11.210830     3A    -11.205887
       4A    -11.205620     5A     -1.073024     6A     -0.980811
       7A     -0.861834     8A     -0.788524     9A     -0.639244
      10A     -0.584379    11A     -0.577908    12A     -0.568692
      13A     -0.512686    14A     -0.496097    15A     -0.470486
      16A     -0.458734    17A     -0.454850

  @DF-RHF Final Energy:  -157.35267191185480

   => Energetics <=

    Nuclear Repulsion Energy =            131.3360224050148020
    One-Electron Energy =                -470.7750381143576988
    Two-Electron Energy =                 182.0863437974881265
    DFT Exchange-Correlation Energy =       0.0000000000000000
    Empirical Dispersion Energy =           0.0000000000000000
    PCM Polarization Energy =               0.0000000000000000
    EFP Energy =                            0.0000000000000000
    Total Energy =                       -157.3526719118547987
  Basis Set: (AUG-CC-PVTZ AUX)
    Blend: AUG-CC-PVTZ-RI
    Molecular point group: c1
  Basis Set: AUG-CC-PVTZ
    Blend: AUG-CC-PVTZ
  Basis Set: (AUG-CC-PVTZ AUX)
    Blend: AUG-CC-PVTZ-JKFIT
  Basis Set: (AUG-CC-PVTZ AUX)
    Blend: AUG-CC-PVTZ-JKFIT
	 Reference Energy          =    -157.3526719118547987 [Eh]
	 Singles Energy            =      -0.0000000000000000 [Eh]
	 Same-Spin Energy          =      -0.1654397379693084 [Eh]
	 Opposite-Spin Energy      =      -0.6397082682238623 [Eh]
	 Correlation Energy        =      -0.8051480061931706 [Eh]
	 Total Energy              =    -158.1578199180479771 [Eh]

	 ================> DF-SCS-MP2 Energies <==================
	-----------------------------------------------------------
	 SCS Same-Spin Scale       =       0.3333333333333333 [-]
	 SCS Opposite-Spin Scale   =       1.2000000000000000 [-]
	 SCS Same-Spin Energy      =      -0.0551465793231028 [Eh]
	 SCS Opposite-Spin Energy  =      -0.7676499218686347 [Eh]
	 SCS Correlation Energy    =      -0.8227965011917375 [Eh]
	 SCS Total Energy          =    -158.1754684130465307 [Eh]
	-----------------------------------------------------------

  -Total Gradient:
     Atom            X                  Y                   Z
    ------   -----------------  -----------------  -----------------
       1        0.000006291456    -0.000000785232     0.000003317653
       2       -0.000009251139    -0.000001016896    -0.000008031813
       3       -0.000014658633    -0.000002649332     0.000002011502
       4        0.000028184396     0.000018266660    -0.000025249425
       5       -0.000009616796     0.000006802764     0.000018636306
       6        0.000015605801    -0.000008215075     0.000002420224
       7        0.000571666239     0.000347724110    -0.002151697982
       8       -0.000023176374    -0.000003863929     0.000003023672
       9        0.000000697355    -0.000012720063     0.000027505365
      10       -0.000732413630    -0.001264509131     0.002736126917
      11        0.000014300223     0.000012521352     0.000005899521
      12       -0.000000270914     0.000025357547     0.000006072371
      13        0.000245039903    -0.002957034375    -0.000977634069
      14       -0.000092397892     0.003840121598     0.000357599758

  **** Optimization is complete! (in 6 steps) ****
    Final optimized geometry and variables:
    Molecular point group: c1

    Geometry (in Angstrom), charge = 0, multiplicity = 1:

    H           -2.350579017946     0.061295256019     0.332811095330
    H           -2.208000963581     1.690030480236    -0.319206075979
    H           -1.922644303314     0.296438847631    -1.355935631758
    C           -1.782347624438     0.689773413128    -0.350525964380
    H            0.238174018214     1.352487201310    -0.652099264836
    H           -0.185663334211     1.103580990578     1.025494934933
    C           -0.312200752711     0.694392005968     0.021502011409
    H           -0.258893292108    -1.367857299840     0.598337232169
    H            0.203842672005    -1.063704506703    -1.055082695164
    C            0.309862764249    -0.688596450328    -0.036590242942
    H            2.221108180768     0.296977597804     0.262430681801
    H            2.363174506545    -1.375764166025    -0.250183656376
    H            1.913740170207    -1.019049871276     1.396014357884
    C            1.783488095329    -0.693421842028     0.367077139780

*** Psi4 exiting successfully. Buy a developer a beer!
