                               Psi4 1.1 release

  ==> Input File <==

--------------------------------------------------------------------------

memory 5 Gb

molecule phepyrOH_neutral {
  symmetry C1
  0 1
  C      1.885   -1.036   -0.112
  C      2.878   -1.652   2.002
  C      0.807   -0.463   0.561
  C      1.800   -1.079   2.676
  C      3.820   -3.040   -1.195
  C      5.339   -1.983   0.341
  C      4.925   -3.584   -1.830
  C      6.376   -2.575   -0.363
  C      2.921   -1.631   0.608
  C      4.040   -2.225   -0.090
  C      0.764   -0.484   1.955
  N      6.202   -3.372   -1.441
  O      -0.288   0.076   2.612
  H      1.904   -1.012   -1.199
  H      3.678   -2.112   2.578
  H      0.003   -0.001   -0.006
  H      1.772   -1.098   3.762
  H      2.820   -3.251   -1.562
  H      5.549   -1.354   1.199
  H      4.807   -4.224   -2.698
  H      7.408   -2.418   -0.066
  H      -0.175   -0.018   3.571
  units Angstrom
}

dih_string = "1 9 10 5 315"
set optking fixed_dihedral = $dih_string

optimize('MP2/aug-cc-PVTZ')
--------------------------------------------------------------------------

    Molecular point group: c1
  Charge       = 0
  Multiplicity = 1
  Basis Set: AUG-CC-PVTZ
    Blend: AUG-CC-PVTZ
  Basis Set: (AUG-CC-PVTZ AUX)
    Blend: AUG-CC-PVTZ-JKFIT
  @DF-RHF Final Energy:  -551.28695230782489
    Total Energy =                       -551.2869523078248903
  Basis Set: (AUG-CC-PVTZ AUX)
    Blend: AUG-CC-PVTZ-RI
    Molecular point group: c1
  Basis Set: AUG-CC-PVTZ
    Blend: AUG-CC-PVTZ
  Basis Set: (AUG-CC-PVTZ AUX)
    Blend: AUG-CC-PVTZ-JKFIT
  Basis Set: (AUG-CC-PVTZ AUX)
    Blend: AUG-CC-PVTZ-JKFIT
	 Reference Energy          =    -551.2869523078248903 [Eh]
	 Singles Energy            =      -0.0000000000000001 [Eh]
	 Same-Spin Energy          =      -0.6048181993979644 [Eh]
	 Opposite-Spin Energy      =      -1.8304646880828606 [Eh]
	 Correlation Energy        =      -2.4352828874808248 [Eh]
	 Total Energy              =    -553.7222351953057569 [Eh]
	 SCS Total Energy          =    -553.6851159999903302 [Eh]
  @DF-RHF Final Energy:  -551.29236719743881
    Total Energy =                       -551.2923671974388071
  @DF-RHF Final Energy:  -551.29336920005107
    Total Energy =                       -551.2933692000510746
  @DF-RHF Final Energy:  -551.29329484472373
    Total Energy =                       -551.2932948447237322
  @DF-RHF Final Energy:  -551.29325352089177
    Total Energy =                       -551.2932535208917670
  Charge       = 0
  Multiplicity = 1
  Basis Set: AUG-CC-PVTZ
    Blend: AUG-CC-PVTZ
  Basis Set: (AUG-CC-PVTZ AUX)
    Blend: AUG-CC-PVTZ-JKFIT

    Orbital Energies (a.u.)
    -----------------------

    Doubly Occupied:

       1A    -20.601588     2A    -15.560153     3A    -11.312952
       4A    -11.271260     5A    -11.271145     6A    -11.263899
       7A    -11.252628     8A    -11.250493     9A    -11.245354
      10A    -11.243691    11A    -11.237210    12A    -11.235207
      13A    -11.235060    14A     -1.418815    15A     -1.257496
      16A     -1.175177    17A     -1.105248    18A     -1.038394
      19A     -1.030495    20A     -1.012865    21A     -0.881352
      22A     -0.870939    23A     -0.845774    24A     -0.812412
      25A     -0.748542    26A     -0.725864    27A     -0.684391
      28A     -0.660472    29A     -0.657758    30A     -0.636356
      31A     -0.615071    32A     -0.605191    33A     -0.603201
      34A     -0.594070    35A     -0.581414    36A     -0.543222
      37A     -0.532959    38A     -0.522792    39A     -0.503557
      40A     -0.494560    41A     -0.416628    42A     -0.393218
      43A     -0.356253    44A     -0.347585    45A     -0.312171

  @DF-RHF Final Energy:  -551.29327534417985

   => Energetics <=

    Nuclear Repulsion Energy =            697.8675968558460454
    One-Electron Energy =               -2132.3919772475569516
    Two-Electron Energy =                 883.2311050475311731
    DFT Exchange-Correlation Energy =       0.0000000000000000
    Empirical Dispersion Energy =           0.0000000000000000
    PCM Polarization Energy =               0.0000000000000000
    EFP Energy =                            0.0000000000000000
    Total Energy =                       -551.2932753441798468
  Basis Set: (AUG-CC-PVTZ AUX)
    Blend: AUG-CC-PVTZ-RI
    Molecular point group: c1
  Basis Set: AUG-CC-PVTZ
    Blend: AUG-CC-PVTZ
  Basis Set: (AUG-CC-PVTZ AUX)
    Blend: AUG-CC-PVTZ-JKFIT
  Basis Set: (AUG-CC-PVTZ AUX)
    Blend: AUG-CC-PVTZ-JKFIT
	 Reference Energy          =    -551.2932753441798468 [Eh]
	 Singles Energy            =      -0.0000000000000003 [Eh]
	 Same-Spin Energy          =      -0.6039753757613311 [Eh]
	 Opposite-Spin Energy      =      -1.8282165654090443 [Eh]
	 Correlation Energy        =      -2.4321919411703758 [Eh]
	 Total Energy              =    -553.7254672853501916 [Eh]

	 ================> DF-SCS-MP2 Energies <==================
	-----------------------------------------------------------
	 SCS Same-Spin Scale       =       0.3333333333333333 [-]
	 SCS Opposite-Spin Scale   =       1.2000000000000000 [-]
	 SCS Same-Spin Energy      =      -0.2013251252537770 [Eh]
	 SCS Opposite-Spin Energy  =      -2.1938598784908532 [Eh]
	 SCS Correlation Energy    =      -2.3951850037446305 [Eh]
	 SCS Total Energy          =    -553.6884603479244333 [Eh]
	-----------------------------------------------------------

  -Total Gradient:
     Atom            X                  Y                   Z
    ------   -----------------  -----------------  -----------------
       1        0.000835842675     0.001430759232     0.000074986604
       2       -0.000011812360     0.000036547860     0.000069957404
       3       -0.000060005156     0.000040883263     0.000052552106
       4        0.000048140330    -0.000035537628    -0.000016021504
       5       -0.000059684990    -0.001343521393     0.000957542644
       6        0.000040292858    -0.000028135220     0.000020864188
       7        0.000032827752    -0.000089519429     0.000035872455
       8        0.000030996547     0.000061915414    -0.000068542745
       9       -0.001262972287    -0.002843957243     0.000364362787
      10        0.000494935854     0.002737150750    -0.001475612348
      11       -0.000006592334    -0.000003796153    -0.000024643171
      12       -0.000054582831     0.000027047681     0.000025345756
      13       -0.000006793616     0.000011893516     0.000006860214
      14       -0.000005589435     0.000004505103     0.000023272346
      15       -0.000018607527     0.000006773471    -0.000023805916
      16        0.000024672175    -0.000014899667    -0.000013780668
      17       -0.000010670934     0.000004996910    -0.000006549040
      18        0.000017467987     0.000014579259     0.000012821868
      19       -0.000017163278    -0.000015077836    -0.000014672909
      20       -0.000007033916     0.000024097669    -0.000014642386
      21       -0.000006782149    -0.000022312723     0.000025102630
      22        0.000003114636    -0.000004392829    -0.000011270304

  **** Optimization is complete! (in 6 steps) ****
    Final optimized geometry and variables:
    Molecular point group: c1

    Geometry (in Angstrom), charge = 0, multiplicity = 1:

    C           -1.286146137137     0.700598415195    -0.555694061288
    C           -0.269243990790     0.118625066411     1.530555423068
    C           -2.353041007119     1.272209974078     0.114483280303
    C           -1.336621685086     0.684060114986     2.209800394043
    C            0.719622341479    -1.284474982229    -1.691932114393
    C            2.213056252012    -0.269567043757    -0.155435003896
    C            1.822955385414    -1.829820862987    -2.328791431037
    C            3.254584809788    -0.858636335474    -0.854396459951
    C           -0.231328202443     0.109262282969     0.138693636168
    C            0.902404969736    -0.473327065678    -0.576081840398
    C           -2.381502841722     1.263243250286     1.502169453073
    N            3.081387893423    -1.630796995498    -1.929685610171
    O           -3.457810774072     1.837478562824     2.107903632722
    H           -1.260775405077     0.730148292701    -1.635068821076
    H            0.530620371111    -0.344613247866     2.089097573688
    H           -3.165243237979     1.737380904639    -0.421984174321
    H           -1.358695697287     0.669879573906     3.290784069063
    H           -0.275312178250    -1.502042339985    -2.050540629006
    H            2.420768045009     0.360750967028     0.696205458482
    H            1.690915729583    -2.463241122992    -3.194935878615
    H            4.276738076400    -0.699632074913    -0.540081734042
    H           -3.353539376677     1.769136530159     3.061725607988

*** Psi4 exiting successfully. Buy a developer a beer!
