                              Psi4 1.0.0 Driver

  ==> Input File <==

--------------------------------------------------------------------------

memory 1000 mb

molecule butane {
  symmetry C1
  0 1
  H      1.604   0.760   -8.260
  H      1.745   2.388   -8.880
  H      2.043   1.024   -9.930
  C      2.142   1.395   -8.932
  H      4.169   2.051   -9.210
  H      3.731   1.788   -7.539
  C      3.631   1.416   -8.537
  H      4.989   -0.119   -7.894
  H      3.428   -0.718   -8.400
  C      4.203   -0.012   -8.612
  H      5.156   -1.261   -10.076
  H      5.534   0.436   -10.237
  H      3.973   -0.163   -10.743
  C      4.759   -0.270   -10.024
  units Angstrom
}

dih_string = "4 7 10 14 90"
set optking fixed_dihedral = $dih_string

optimize('B3LYP/cc-PVDZ')
--------------------------------------------------------------------------

    Molecular point group: c1
  Charge       = 0
  Multiplicity = 1
  Basis Set: CC-PVDZ
   => B3LYP Composite Functional <=
  Basis Set:
  @DF-RKS Final Energy:  -158.44609930405267
    Total Energy =                       -158.4460993040526660
    Molecular point group: c1
  Basis Set: CC-PVDZ
  Basis Set:
   => B3LYP Composite Functional <=
  Basis Set: CC-PVDZ
   => B3LYP Composite Functional <=
  Basis Set:
  @DF-RKS Final Energy:  -158.45197023950007
    Total Energy =                       -158.4519702395000706
  Basis Set: CC-PVDZ
  Basis Set:
   => B3LYP Composite Functional <=
  Basis Set: CC-PVDZ
   => B3LYP Composite Functional <=
  Basis Set:
  @DF-RKS Final Energy:  -158.45472001557209
    Total Energy =                       -158.4547200155720930
  Basis Set: CC-PVDZ
  Basis Set:
  @DF-RKS Final Energy:  -158.45558928315504
    Total Energy =                       -158.4555892831550352
   => B3LYP Composite Functional <=
  Basis Set:
  @DF-RKS Final Energy:  -158.45582596310396
    Total Energy =                       -158.4558259631039618
  Basis Set: CC-PVDZ
  Basis Set:
   => B3LYP Composite Functional <=
  Basis Set: CC-PVDZ
   => B3LYP Composite Functional <=
  Basis Set:
  @DF-RKS Final Energy:  -158.45586398082236
    Total Energy =                       -158.4558639808223575
  Basis Set: CC-PVDZ
  Basis Set:
   => B3LYP Composite Functional <=
  Charge       = 0
  Multiplicity = 1
  Basis Set: CC-PVDZ
   => B3LYP Composite Functional <=
  Basis Set:

    Orbital Energies (a.u.)
    -----------------------

    Doubly Occupied:

       1A    -10.180175     2A    -10.180008     3A    -10.175880
       4A    -10.175878     5A     -0.789616     6A     -0.718082
       7A     -0.632513     8A     -0.567162     9A     -0.452392
      10A     -0.445316    11A     -0.415775    12A     -0.384357
      13A     -0.371692    14A     -0.359243    15A     -0.326663
      16A     -0.320058    17A     -0.314998

  @DF-RKS Final Energy:  -158.45586436914226

   => Energetics <=

    Nuclear Repulsion Energy =            130.9908522031437315
    One-Electron Energy =                -470.4761965108093023
    Two-Electron Energy =                 201.6122660662506689
    DFT Exchange-Correlation Energy =     -20.5827861277273705
    Empirical Dispersion Energy =           0.0000000000000000
    PCM Polarization Energy =               0.0000000000000000
    EFP Energy =                            0.0000000000000000
    Total Energy =                       -158.4558643691422617
    Molecular point group: c1
  Basis Set: CC-PVDZ
  Basis Set:
   => B3LYP Composite Functional <=

  -Total Gradient:
     Atom            X                  Y                   Z
    ------   -----------------  -----------------  -----------------
       1       -0.000016634426     0.000001043777    -0.000002711137
       2        0.000000340292     0.000000900717     0.000006119090
       3        0.000008262179     0.000003268700     0.000008711461
       4       -0.000553070804    -0.000537608221     0.002413122802
       5        0.000004908840     0.000010117612    -0.000014696538
       6        0.000005700997    -0.000006965836    -0.000024707839
       7        0.001649994740     0.001149460514    -0.003039727881
       8       -0.000023994554     0.000001459507    -0.000010542763
       9       -0.000013267875    -0.000012720724    -0.000001667014
      10       -0.003258594437    -0.001630613041    -0.000079521245
      11        0.000004873886     0.000000626079     0.000003988060
      12        0.000007711179    -0.000003922199    -0.000014175865
      13        0.000002590829    -0.000000168331     0.000012453731
      14        0.002188182572     0.001027217242     0.000756935841

  **** Optimization is complete! (in 7 steps) ****
    Final optimized geometry and variables:
    Molecular point group: c1

    Geometry (in Angstrom), charge = 0, multiplicity = 1:

    H           -2.158715079747     0.084752840101     0.830934928869
    H           -2.034998666946     1.758917042028     0.237796350135
    H           -1.760890736827     0.399145062781    -0.873771180152
    C           -1.593169211533     0.752010511246     0.158532938418
    H            0.434547068735     1.496093672883    -0.102183950402
    H           -0.002711760742     1.114269746039     1.561935519729
    C           -0.104516660773     0.759455091862     0.521023188554
    H            1.388111419828    -0.699721604808     1.124625649205
    H           -0.152459271511    -1.411686299881     0.649206529020
    C            0.571771933760    -0.619639824761     0.385076257913
    H            1.603018635955    -1.888177175790    -1.075486190820
    H            1.943456291711    -0.149166798638    -1.248365121980
    H            0.385279041187    -0.810763348015    -1.793809557438
    C            1.155759254019    -0.882895032292    -1.006756602665

*** Psi4 exiting successfully. Buy a developer a beer!
