                              Psi4 1.0.0 Driver

  ==> Input File <==

--------------------------------------------------------------------------

memory 1000 mb

molecule butane {
  symmetry C1
  0 1
  H      1.604   0.760   -8.260
  H      1.745   2.388   -8.880
  H      2.043   1.024   -9.930
  C      2.142   1.395   -8.932
  H      4.169   2.051   -9.210
  H      3.731   1.788   -7.539
  C      3.631   1.416   -8.537
  H      4.405   -0.367   -7.623
  H      3.492   -0.657   -9.084
  C      4.203   -0.012   -8.612
  H      5.904   -0.993   -9.482
  H      6.219   0.644   -8.959
  H      5.306   0.354   -10.419
  C      5.507   -0.001   -9.430
  units Angstrom
}

dih_string = "4 7 10 14 130"
set optking fixed_dihedral = $dih_string

optimize('MP2/6-31G(d)')
--------------------------------------------------------------------------

    Molecular point group: c1
  Charge       = 0
  Multiplicity = 1
  Basis Set: 6-31G(D)
  Basis Set:
  @DF-RHF Final Energy:  -157.28829855191375
    Total Energy =                       -157.2882985519137833
  Basis Set:
    Molecular point group: c1
  Basis Set: 6-31G(D)
  Basis Set:
  Basis Set:
	 Reference Energy          =    -157.2882985519137549 [Eh]
	 Singles Energy            =      -0.0000000000000000 [Eh]
	 Same-Spin Energy          =      -0.1244181095023542 [Eh]
	 Opposite-Spin Energy      =      -0.4204083512323418 [Eh]
	 Correlation Energy        =      -0.5448264607346961 [Eh]
	 Total Energy              =    -157.8331250126484520 [Eh]
	 SCS Total Energy          =    -157.8342612765600279 [Eh]
  Basis Set: 6-31G(D)
  Basis Set:
  @DF-RHF Final Energy:  -157.29130688335962
    Total Energy =                       -157.2913068833595673
  Basis Set:
  Basis Set: 6-31G(D)
  Basis Set:
  @DF-RHF Final Energy:  -157.29219281438802
    Total Energy =                       -157.2921928143880734
  @DF-RHF Final Energy:  -157.29248840397693
    Total Energy =                       -157.2924884039769040
  @DF-RHF Final Energy:  -157.29250863007658
    Total Energy =                       -157.2925086300767248
  @DF-RHF Final Energy:  -157.29252312743222
    Total Energy =                       -157.2925231274322186
	 Singles Energy            =      -0.0000000000000000 [Eh]
	 Same-Spin Energy          =      -0.1242895531746945 [Eh]
	 Opposite-Spin Energy      =      -0.4223947953939752 [Eh]
	 Correlation Energy        =      -0.5466843485686698 [Eh]
	 Total Energy              =    -157.8392074760008938 [Eh]
	 SCS Total Energy          =    -157.8408267329632224 [Eh]
  Charge       = 0
  Multiplicity = 1
  Basis Set: 6-31G(D)
  Basis Set:

    Orbital Energies (a.u.)
    -----------------------

    Doubly Occupied:

       1A    -11.215494     2A    -11.214933     3A    -11.210492
       4A    -11.210485     5A     -1.067835     6A     -0.979291
       7A     -0.859593     8A     -0.786371     9A     -0.631147
      10A     -0.592429    11A     -0.580723    12A     -0.554381
      13A     -0.509531    14A     -0.504952    15A     -0.465034
      16A     -0.455571    17A     -0.454062

  @DF-RHF Final Energy:  -157.29252243227148

   => Energetics <=

    Nuclear Repulsion Energy =            130.9135731090441936
    One-Electron Energy =                -469.8275423080136761
    Two-Electron Energy =                 181.6214467666980283
    DFT Exchange-Correlation Energy =       0.0000000000000000
    Empirical Dispersion Energy =           0.0000000000000000
    PCM Polarization Energy =               0.0000000000000000
    EFP Energy =                            0.0000000000000000
    Total Energy =                       -157.2925224322714541
  Basis Set:
    Molecular point group: c1
  Basis Set: 6-31G(D)
  Basis Set:
  Basis Set:
	 Reference Energy          =    -157.2925224322714826 [Eh]
	 Singles Energy            =      -0.0000000000000000 [Eh]
	 Same-Spin Energy          =      -0.1242889761977247 [Eh]
	 Opposite-Spin Energy      =      -0.4223961378702970 [Eh]
	 Correlation Energy        =      -0.5466851140680217 [Eh]
	 Total Energy              =    -157.8392075463395088 [Eh]

	 ================> DF-SCS-MP2 Energies <==================
	-----------------------------------------------------------
	 SCS Same-Spin Scale       =       0.3333333333333333 [-]
	 SCS Opposite-Spin Scale   =       1.2000000000000000 [-]
	 SCS Same-Spin Energy      =      -0.0414296587325749 [Eh]
	 SCS Opposite-Spin Energy  =      -0.5068753654443563 [Eh]
	 SCS Correlation Energy    =      -0.5483050241769312 [Eh]
	 SCS Total Energy          =    -157.8408274564484088 [Eh]
	-----------------------------------------------------------

  -Total Gradient:
     Atom            X                  Y                   Z
    ------   -----------------  -----------------  -----------------
       1       -0.000000218032    -0.000000251405    -0.000002782257
       2        0.000000466963    -0.000006231361    -0.000000195927
       3       -0.000006415193     0.000001781002     0.000004546229
       4        0.000450955466     0.000306573697    -0.001764879100
       5        0.000007865202     0.000003639835     0.000010526523
       6        0.000018365845     0.000000584182    -0.000001415288
       7       -0.000999122030    -0.000570371797     0.001836379252
       8       -0.000018189525    -0.000000355276     0.000003946167
       9       -0.000004289088    -0.000003295047     0.000012387041
      10        0.001497208210     0.000597661977     0.001448768976
      11       -0.000000546040     0.000006362647    -0.000000219977
      12       -0.000000521427     0.000000031228    -0.000002639827
      13        0.000007418373    -0.000001772758     0.000002526670
      14       -0.000952978723    -0.000334356922    -0.001546948480

  **** Optimization is complete! (in 7 steps) ****
    Final optimized geometry and variables:
    Molecular point group: c1

    Geometry (in Angstrom), charge = 0, multiplicity = 1:

    H           -2.324373533200     0.043324347117     0.634431879112
    H           -2.186555206084     1.703320280621     0.040328003620
    H           -1.890314888921     0.343001893468    -1.051798425511
    C           -1.753216136088     0.701314114933    -0.027356574513
    H            0.255877812885     1.383850150937    -0.329689225056
    H           -0.145397129931     1.116092707874     1.351274832495
    C           -0.274129383866     0.701481435429     0.345733454865
    H            0.542232282758    -1.094069781814     1.265598189221
    H           -0.338659593240    -1.388441537018    -0.216201666620
    C            0.366049715786    -0.696379709813     0.260416994291
    H            2.104452768324    -1.707879599541    -0.581693379528
    H            2.408073638930    -0.038692870440    -0.082526897990
    H            1.494381294403    -0.364961812261    -1.559112096666
    C            1.668038368139    -0.706041582955    -0.534332935380

*** Psi4 exiting successfully. Buy a developer a beer!
