                               Psi4 1.1 release

  ==> Input File <==

--------------------------------------------------------------------------

memory 5 Gb

molecule phepyrOH_cation {
  symmetry C1
  1 1
  C      1.885   -1.036   -0.112
  C      2.878   -1.652   2.002
  C      0.807   -0.463   0.561
  C      1.800   -1.079   2.676
  C      5.073   -2.819   0.628
  C      4.084   -2.204   -1.481
  C      6.134   -3.381   -0.068
  C      5.170   -2.782   -2.124
  C      2.921   -1.631   0.608
  C      4.040   -2.225   -0.090
  C      0.764   -0.484   1.955
  N      6.152   -3.347   -1.408
  O      -0.288   0.076   2.612
  H      1.904   -1.012   -1.199
  H      3.678   -2.112   2.578
  H      0.003   -0.001   -0.006
  H      1.772   -1.098   3.762
  H      5.065   -2.850   1.714
  H      3.292   -1.748   -2.067
  H      6.978   -3.862   0.406
  H      5.288   -2.812   -3.198
  H      6.941   -3.764   -1.900
  H      -0.175   -0.018   3.571
  units Angstrom
}

dih_string = "1 9 10 5 180.001"
set optking fixed_dihedral = $dih_string

optimize('MP2/aug-cc-PVTZ')
--------------------------------------------------------------------------

    Molecular point group: c1
  Charge       = 1
  Multiplicity = 1
  Basis Set: AUG-CC-PVTZ
    Blend: AUG-CC-PVTZ
  Basis Set: (AUG-CC-PVTZ AUX)
    Blend: AUG-CC-PVTZ-JKFIT
  @DF-RHF Final Energy:  -551.67164195209864
    Total Energy =                       -551.6716419520986392
  Basis Set: (AUG-CC-PVTZ AUX)
    Blend: AUG-CC-PVTZ-RI
    Molecular point group: c1
  Basis Set: AUG-CC-PVTZ
    Blend: AUG-CC-PVTZ
  Basis Set: (AUG-CC-PVTZ AUX)
    Blend: AUG-CC-PVTZ-JKFIT
  Basis Set: (AUG-CC-PVTZ AUX)
    Blend: AUG-CC-PVTZ-JKFIT
	 Reference Energy          =    -551.6716419520986392 [Eh]
	 Singles Energy            =      -0.0000000000000000 [Eh]
	 Same-Spin Energy          =      -0.5970980290760912 [Eh]
	 Opposite-Spin Energy      =      -1.8275827975675922 [Eh]
	 Correlation Energy        =      -2.4246808266436837 [Eh]
	 Total Energy              =    -554.0963227787423193 [Eh]
	 SCS Total Energy          =    -554.0637739855384325 [Eh]
  @DF-RHF Final Energy:  -551.67917437282267
    Total Energy =                       -551.6791743728226720
  @DF-RHF Final Energy:  -551.68191361431718
    Total Energy =                       -551.6819136143171818
  @DF-RHF Final Energy:  -551.68190562282462
    Total Energy =                       -551.6819056228246154
  Charge       = 1
  Multiplicity = 1
  Basis Set: AUG-CC-PVTZ
    Blend: AUG-CC-PVTZ
  Basis Set: (AUG-CC-PVTZ AUX)
    Blend: AUG-CC-PVTZ-JKFIT

    Orbital Energies (a.u.)
    -----------------------

    Doubly Occupied:

       1A    -20.713644     2A    -15.821882     3A    -11.475609
       4A    -11.475515     5A    -11.450700     6A    -11.440621
       7A    -11.406177     8A    -11.405787     9A    -11.383696
      10A    -11.379869    11A    -11.375322    12A    -11.357745
      13A    -11.350891    14A     -1.537137    15A     -1.502338
      16A     -1.317588    17A     -1.267351    18A     -1.233890
      19A     -1.159587    20A     -1.158338    21A     -1.059745
      22A     -1.058127    23A     -0.981421    24A     -0.960126
      25A     -0.956431    26A     -0.876751    27A     -0.861768
      28A     -0.855053    29A     -0.820771    30A     -0.798364
      31A     -0.779174    32A     -0.769651    33A     -0.761490
      34A     -0.735172    35A     -0.720708    36A     -0.717027
      37A     -0.701619    38A     -0.686923    39A     -0.666014
      40A     -0.646914    41A     -0.619812    42A     -0.568463
      43A     -0.536902    44A     -0.476660    45A     -0.437005

  @DF-RHF Final Energy:  -551.68190245020423

   => Energetics <=

    Nuclear Repulsion Energy =            712.9829468608043044
    One-Electron Energy =               -2148.7981431953971878
    Two-Electron Energy =                 884.1332938843886495
    DFT Exchange-Correlation Energy =       0.0000000000000000
    Empirical Dispersion Energy =           0.0000000000000000
    PCM Polarization Energy =               0.0000000000000000
    EFP Energy =                            0.0000000000000000
    Total Energy =                       -551.6819024502042339
  Basis Set: (AUG-CC-PVTZ AUX)
    Blend: AUG-CC-PVTZ-RI
    Molecular point group: c1
  Basis Set: AUG-CC-PVTZ
    Blend: AUG-CC-PVTZ
  Basis Set: (AUG-CC-PVTZ AUX)
    Blend: AUG-CC-PVTZ-JKFIT
  Basis Set: (AUG-CC-PVTZ AUX)
    Blend: AUG-CC-PVTZ-JKFIT
	 Reference Energy          =    -551.6819024502042339 [Eh]
	 Singles Energy            =      -0.0000000000000005 [Eh]
	 Same-Spin Energy          =      -0.5955698622680222 [Eh]
	 Opposite-Spin Energy      =      -1.8244355709543632 [Eh]
	 Correlation Energy        =      -2.4200054332223857 [Eh]
	 Total Energy              =    -554.1019078834266338 [Eh]

	 ================> DF-SCS-MP2 Energies <==================
	-----------------------------------------------------------
	 SCS Same-Spin Scale       =       0.3333333333333333 [-]
	 SCS Opposite-Spin Scale   =       1.2000000000000000 [-]
	 SCS Same-Spin Energy      =      -0.1985232874226741 [Eh]
	 SCS Opposite-Spin Energy  =      -2.1893226851452359 [Eh]
	 SCS Correlation Energy    =      -2.3878459725679102 [Eh]
	 SCS Total Energy          =    -554.0697484227721361 [Eh]
	-----------------------------------------------------------

  -Total Gradient:
     Atom            X                  Y                   Z
    ------   -----------------  -----------------  -----------------
       1        0.000083939446    -0.000080492090     0.000055347123
       2       -0.000007346413    -0.000020401394    -0.000034135029
       3       -0.000103504844     0.000051028839     0.000024625979
       4        0.000028484047    -0.000020079037    -0.000015611667
       5       -0.000007512113     0.000020293581    -0.000055766721
       6        0.000084252286    -0.000032033747    -0.000025918753
       7        0.000014565340    -0.000008604956     0.000054951347
       8       -0.000052484483     0.000037229340    -0.000056275458
       9        0.000023464451     0.000042411877    -0.000091323449
      10       -0.000082459198    -0.000000186131     0.000042072020
      11        0.000013889363     0.000032304359     0.000030543793
      12        0.000006024425    -0.000006088392     0.000011529564
      13        0.000006352760    -0.000017377318    -0.000001392857
      14       -0.000070134026     0.000041366778     0.000017359755
      15        0.000056649251    -0.000029517505     0.000038964301
      16        0.000005376516     0.000001549713    -0.000029140277
      17       -0.000025142936     0.000014633753     0.000013946995
      18       -0.000033906760     0.000014614465     0.000074863353
      19        0.000011161764    -0.000008064430    -0.000014020667
      20        0.000005486929    -0.000003362065    -0.000011965148
      21        0.000014441799    -0.000010004803     0.000003297720
      22        0.000014836385    -0.000008827300    -0.000009927117
      23        0.000013566007    -0.000010393533    -0.000022024795

  **** Optimization is complete! (in 5 steps) ****
    Final optimized geometry and variables:
    Molecular point group: c1

    Geometry (in Angstrom), charge = 1, multiplicity = 1:

    C           -1.295275785421     0.731952822515    -0.541449492554
    C           -0.301676278327     0.115969454071     1.552192470976
    C           -2.359240281936     1.297410815680     0.123490305550
    C           -1.364199656966     0.680328192667     2.225395759281
    C            1.946204249915    -1.077713753047     0.127596688425
    C            0.961134755652    -0.466840336762    -1.951378200031
    C            2.997200335466    -1.635370757205    -0.552404051160
    C            2.025290897234    -1.032626187748    -2.603715533179
    C           -0.238867936080     0.126786494497     0.153664512348
    C            0.877846846173    -0.466521003046    -0.549168359974
    C           -2.403864432637     1.276975387992     1.515820830520
    N            3.014382932362    -1.601265198382    -1.895035991805
    O           -3.469574942749     1.845787936715     2.098148231571
    H           -1.304041575284     0.771669954725    -1.617837915969
    H            0.479428433890    -0.334071190032     2.142104763968
    H           -3.169369451824     1.761829958590    -0.416932496417
    H           -1.388397225053     0.658602206508     3.305570086930
    H            1.975120633446    -1.128522898767     1.201590403266
    H            0.192898891354    -0.023328332391    -2.559436778281
    H            3.832076949945    -2.111701022117    -0.065434370581
    H            2.120826930668    -1.050475732210    -3.676840006017
    H            3.794934071692    -2.015875485029    -2.386724269492
    H           -3.407642282955     1.780310136082     3.057978765775

*** Psi4 exiting successfully. Buy a developer a beer!
