                              Psi4 1.0.0 Driver

  ==> Input File <==

--------------------------------------------------------------------------

memory 1000 mb

molecule butane {
  symmetry C1
  0 1
  H      1.604   0.760   -8.260
  H      1.745   2.388   -8.880
  H      2.043   1.024   -9.930
  C      2.142   1.395   -8.932
  H      4.169   2.051   -9.210
  H      3.731   1.788   -7.539
  C      3.631   1.416   -8.537
  H      3.788   -0.604   -7.823
  H      3.950   -0.448   -9.555
  C      4.203   -0.012   -8.612
  H      6.132   -0.953   -8.517
  H      5.988   0.476   -7.521
  H      6.150   0.631   -9.254
  C      5.734   0.039   -8.465
  units Angstrom
}

dih_string = "4 7 10 14 170"
set optking fixed_dihedral = $dih_string

optimize('MP2/6-31G(d)')
--------------------------------------------------------------------------

    Molecular point group: c1
  Charge       = 0
  Multiplicity = 1
  Basis Set: 6-31G(D)
  Basis Set:
  @DF-RHF Final Energy:  -157.29377611653598
    Total Energy =                       -157.2937761165358665
  Basis Set:
    Molecular point group: c1
  Basis Set: 6-31G(D)
  Basis Set:
  Basis Set:
	 Reference Energy          =    -157.2937761165359802 [Eh]
	 Singles Energy            =      -0.0000000000000000 [Eh]
	 Same-Spin Energy          =      -0.1243541580614087 [Eh]
	 Opposite-Spin Energy      =      -0.4201427338723571 [Eh]
	 Correlation Energy        =      -0.5444968919337658 [Eh]
	 Total Energy              =    -157.8382730084697414 [Eh]
	 SCS Total Energy          =    -157.8393987832032792 [Eh]
  Basis Set: 6-31G(D)
  Basis Set:
  @DF-RHF Final Energy:  -157.29659659033462
    Total Energy =                       -157.2965965903347580
  Basis Set:
  Basis Set: 6-31G(D)
  Basis Set:
  @DF-RHF Final Energy:  -157.29734314041139
    Total Energy =                       -157.2973431404112716
  @DF-RHF Final Energy:  -157.29753708503353
    Total Energy =                       -157.2975370850336674
  @DF-RHF Final Energy:  -157.29754366462745
    Total Energy =                       -157.2975436646272556
	 Singles Energy            =      -0.0000000000000000 [Eh]
	 Same-Spin Energy          =      -0.1244374285561085 [Eh]
	 Opposite-Spin Energy      =      -0.4222099189862178 [Eh]
	 Correlation Energy        =      -0.5466473475423264 [Eh]
	 Total Energy              =    -157.8441910121697731 [Eh]
	 SCS Total Energy          =    -157.8456747102629549 [Eh]
  Charge       = 0
  Multiplicity = 1
  Basis Set: 6-31G(D)
  Basis Set:

    Orbital Energies (a.u.)
    -----------------------

    Doubly Occupied:

       1A    -11.215764     2A    -11.215163     3A    -11.210301
       4A    -11.210297     5A     -1.070402     6A     -0.979794
       7A     -0.859481     8A     -0.786247     9A     -0.637644
      10A     -0.583636    11A     -0.576000    12A     -0.565843
      13A     -0.513574    14A     -0.494594    15A     -0.468335
      16A     -0.459822    17A     -0.455918

  @DF-RHF Final Energy:  -157.29755257663800

   => Energetics <=

    Nuclear Repulsion Energy =            130.8004070836707911
    One-Electron Energy =                -469.5902850535586026
    Two-Electron Energy =                 181.4923253932497005
    DFT Exchange-Correlation Energy =       0.0000000000000000
    Empirical Dispersion Energy =           0.0000000000000000
    PCM Polarization Energy =               0.0000000000000000
    EFP Energy =                            0.0000000000000000
    Total Energy =                       -157.2975525766381111
  Basis Set:
    Molecular point group: c1
  Basis Set: 6-31G(D)
  Basis Set:
  Basis Set:
	 Reference Energy          =    -157.2975525766379974 [Eh]
	 Singles Energy            =      -0.0000000000000000 [Eh]
	 Same-Spin Energy          =      -0.1244355172872253 [Eh]
	 Opposite-Spin Energy      =      -0.4222023653444647 [Eh]
	 Correlation Energy        =      -0.5466378826316900 [Eh]
	 Total Energy              =    -157.8441904592696972 [Eh]

	 ================> DF-SCS-MP2 Energies <==================
	-----------------------------------------------------------
	 SCS Same-Spin Scale       =       0.3333333333333333 [-]
	 SCS Opposite-Spin Scale   =       1.2000000000000000 [-]
	 SCS Same-Spin Energy      =      -0.0414785057624084 [Eh]
	 SCS Opposite-Spin Energy  =      -0.5066428384133577 [Eh]
	 SCS Correlation Energy    =      -0.5481213441757661 [Eh]
	 SCS Total Energy          =    -157.8456739208137662 [Eh]
	-----------------------------------------------------------

  -Total Gradient:
     Atom            X                  Y                   Z
    ------   -----------------  -----------------  -----------------
       1        0.000005943692     0.000000465815     0.000002814812
       2       -0.000014195986     0.000003647072    -0.000005563341
       3       -0.000011093305    -0.000000230844    -0.000001910994
       4        0.000378664277     0.000235622382    -0.001432408477
       5       -0.000012384319    -0.000005516843     0.000006113280
       6        0.000008736123    -0.000007700383     0.000003745589
       7       -0.000466880138    -0.000234769398     0.001405930570
       8       -0.000009638835     0.000006631029     0.000002250575
       9        0.000009563664     0.000003757195     0.000011061033
      10       -0.000045486716    -0.000122333096     0.001495940878
      11        0.000014909174    -0.000003009092    -0.000001258874
      12       -0.000007433363    -0.000001332926    -0.000000101134
      13        0.000010442674    -0.000000231050     0.000002499113
      14        0.000138853059     0.000125000141    -0.001489113030

  **** Optimization is complete! (in 6 steps) ****
    Final optimized geometry and variables:
    Molecular point group: c1

    Geometry (in Angstrom), charge = 0, multiplicity = 1:

    H           -2.377088519180     0.035737836377     0.370265404047
    H           -2.230107138196     1.692810126822    -0.228333679106
    H           -1.934670358909     0.329226657119    -1.315275299706
    C           -1.800133326648     0.689273980586    -0.291148470990
    H            0.224125122211     1.354499993949    -0.585782673524
    H           -0.195794751616     1.100393297820     1.098945951725
    C           -0.324157427615     0.687507657940     0.091154853027
    H           -0.140867518369    -1.335012629439     0.809194713776
    H            0.042953710813    -1.168382006078    -0.927946833853
    C            0.302633574479    -0.702509759220     0.030836774204
    H            2.244611080883    -1.682700021187     0.146120659931
    H            2.112229638563    -0.220316696381     1.130867244973
    H            2.276798894674    -0.090787886587    -0.623858051051
    C            1.819793529818    -0.675571022245     0.179722424748

*** Psi4 exiting successfully. Buy a developer a beer!
