                               Psi4 1.1 release

  ==> Input File <==

--------------------------------------------------------------------------

memory 5 Gb

molecule phepyrFOH_cation {
  symmetry C1
  1 1
  C      1.885   -1.036   -0.112
  C      0.807   -0.463   0.561
  C      5.074   -2.819   0.619
  C      4.078   -2.202   -1.486
  C      1.800   -1.079   2.676
  C      6.132   -3.380   -0.081
  C      5.161   -2.779   -2.133
  C      2.921   -1.631   0.608
  C      4.038   -2.225   -0.095
  C      0.764   -0.484   1.955
  C      2.878   -1.652   2.002
  N      6.145   -3.344   -1.421
  O      -0.289   0.076   2.612
  F      3.866   -2.220   2.709
  H      1.904   -1.012   -1.199
  H      0.002   -0.002   -0.006
  H      5.069   -2.852   1.705
  H      3.284   -1.745   -2.068
  H      1.772   -1.099   3.762
  H      6.978   -3.863   0.389
  H      5.276   -2.808   -3.207
  H      6.933   -3.761   -1.916
  H      -0.175   -0.018   3.571
  units Angstrom
}

dih_string = "1 8 9 3 180.001"
set optking fixed_dihedral = $dih_string

optimize('MP2/aug-cc-PVTZ')
--------------------------------------------------------------------------

    Molecular point group: c1
  Charge       = 1
  Multiplicity = 1
  Basis Set: AUG-CC-PVTZ
    Blend: AUG-CC-PVTZ
  Basis Set: (AUG-CC-PVTZ AUX)
    Blend: AUG-CC-PVTZ-JKFIT
  @DF-RHF Final Energy:  -650.54859743712416
    Total Energy =                       -650.5485974371240445
  Basis Set: (AUG-CC-PVTZ AUX)
    Blend: AUG-CC-PVTZ-RI
    Molecular point group: c1
  Basis Set: AUG-CC-PVTZ
    Blend: AUG-CC-PVTZ
  Basis Set: (AUG-CC-PVTZ AUX)
    Blend: AUG-CC-PVTZ-JKFIT
  Basis Set: (AUG-CC-PVTZ AUX)
    Blend: AUG-CC-PVTZ-JKFIT
	 Reference Energy          =    -650.5485974371241582 [Eh]
	 Singles Energy            =      -0.0000000000000002 [Eh]
	 Same-Spin Energy          =      -0.6713173560093146 [Eh]
	 Opposite-Spin Energy      =      -2.0175468823205307 [Eh]
	 Correlation Energy        =      -2.6888642383298453 [Eh]
	 Total Energy              =    -653.2374616754540284 [Eh]
	 SCS Total Energy          =    -653.1934261479118504 [Eh]
  @DF-RHF Final Energy:  -650.54905139387893
    Total Energy =                       -650.5490513938789263
  @DF-RHF Final Energy:  -650.54973702376685
    Total Energy =                       -650.5497370237669656
  @DF-RHF Final Energy:  -650.55028880262523
    Total Energy =                       -650.5502888026251185
  @DF-RHF Final Energy:  -650.55082614667822
    Total Energy =                       -650.5508261466782187
  @DF-RHF Final Energy:  -650.55131517999178
    Total Energy =                       -650.5513151799916614
  @DF-RHF Final Energy:  -650.55172043546736
    Total Energy =                       -650.5517204354673595
  @DF-RHF Final Energy:  -650.55201849830189
    Total Energy =                       -650.5520184983017771
  @DF-RHF Final Energy:  -650.55218078965720
    Total Energy =                       -650.5521807896570863
  @DF-RHF Final Energy:  -650.55217935977566
    Total Energy =                       -650.5521793597756641
  @DF-RHF Final Energy:  -650.55198918245378
    Total Energy =                       -650.5519891824537808
  @DF-RHF Final Energy:  -650.55120030052262
    Total Energy =                       -650.5512003005226234
  @DF-RHF Final Energy:  -650.55130529889107
    Total Energy =                       -650.5513052988910658
  @DF-RHF Final Energy:  -650.55063659240795
    Total Energy =                       -650.5506365924079546
  @DF-RHF Final Energy:  -650.55213199459570
    Total Energy =                       -650.5521319945955838
    Molecular point group: c1
  Charge       = 1
  Multiplicity = 1
  Basis Set: AUG-CC-PVTZ
    Blend: AUG-CC-PVTZ
  Basis Set: (AUG-CC-PVTZ AUX)
    Blend: AUG-CC-PVTZ-JKFIT

    Orbital Energies (a.u.)
    -----------------------

    Doubly Occupied:

       1A    -26.453619     2A    -20.715899     3A    -15.831161
       4A    -11.482384     5A    -11.478032     6A    -11.475830
       7A    -11.451518     8A    -11.449840     9A    -11.415235
      10A    -11.408757    11A    -11.393953    12A    -11.382012
      13A    -11.368113    14A    -11.360040    15A     -1.776839
      16A     -1.531811    17A     -1.508425    18A     -1.326007
      19A     -1.273417    20A     -1.234456    21A     -1.168588
      22A     -1.161376    23A     -1.067587    24A     -1.060306
      25A     -0.998811    26A     -0.971951    27A     -0.957973
      28A     -0.900922    29A     -0.876917    30A     -0.863996
      31A     -0.854403    32A     -0.845864    33A     -0.821340
      34A     -0.805295    35A     -0.781378    36A     -0.772156
      37A     -0.768942    38A     -0.753014    39A     -0.727208
      40A     -0.716551    41A     -0.707407    42A     -0.691189
      43A     -0.659983    44A     -0.650825    45A     -0.639394
      46A     -0.572802    47A     -0.534119    48A     -0.478126
      49A     -0.448462

  @DF-RHF Final Energy:  -650.55122941936975

   => Energetics <=

    Nuclear Repulsion Energy =            834.8644104697239072
    One-Electron Energy =               -2529.6828223679358416
    Two-Electron Energy =                1044.2671824788421873
    DFT Exchange-Correlation Energy =       0.0000000000000000
    Empirical Dispersion Energy =           0.0000000000000000
    PCM Polarization Energy =               0.0000000000000000
    EFP Energy =                            0.0000000000000000
    Total Energy =                       -650.5512294193697471
  Basis Set: (AUG-CC-PVTZ AUX)
    Blend: AUG-CC-PVTZ-RI
    Molecular point group: c1

    Geometry (in Angstrom), charge = 1, multiplicity = 1:

       Center              X                  Y                   Z               Mass
    ------------   -----------------  -----------------  -----------------  -----------------
           C         -1.236089992014     0.953268419300    -0.760992206406    12.000000000000
           C         -2.181027473809     1.681722698411    -0.045994945085    12.000000000000
           C          1.889364008195    -0.733213257262    -0.064921279596    12.000000000000
           C          0.718878696229    -0.793306524030    -2.165903922382    12.000000000000
           C         -1.467360637129     0.597147119779     1.983456194123    12.000000000000
           C          3.039059802575    -1.129204911586    -0.727858713345    12.000000000000
           C          1.895959312966    -1.188529442339    -2.776739426338    12.000000000000
           C         -0.447397737762    -0.019247261979    -0.124746745559    12.000000000000
           C          0.684118646689    -0.626543096094    -0.777142468568    12.000000000000
           C         -2.307691628283     1.495731996753     1.327231770264    12.000000000000
           C         -0.530368563574    -0.124640794335     1.254147715076    12.000000000000
           N          3.008562890080    -1.354545520622    -2.048118839864    14.003074004780
           O         -3.227600710483     2.215624638351     2.019247161886    15.994914619560
           F          0.305998133210    -0.968466167314     1.879803645494    18.998403224000
           H         -1.134228208039     1.138463741393    -1.826740970969     1.007825032070
           H         -2.808059803668     2.406959299044    -0.561499649447     1.007825032070
           H          1.940141108400    -0.534007393521     0.998915810054     1.007825032070
           H         -0.167111553684    -0.635321999273    -2.773133567305     1.007825032070
           H         -1.529830355670     0.467209524745     3.059582589052     1.007825032070
           H          3.999482460635    -1.262924592405    -0.242214099267     1.007825032070
           H          1.991493869124    -1.364194004749    -3.838797082907     1.007825032070
           H          3.867846767698    -1.637318301425    -2.516849116565     1.007825032070
           H         -3.189714918721     1.986872447243     2.960403769555     1.007825032070

  Basis Set: AUG-CC-PVTZ
    Blend: AUG-CC-PVTZ
  Basis Set: (AUG-CC-PVTZ AUX)
    Blend: AUG-CC-PVTZ-JKFIT
  Basis Set: (AUG-CC-PVTZ AUX)
    Blend: AUG-CC-PVTZ-JKFIT
	 Reference Energy          =    -650.5512294193697471 [Eh]
	 Singles Energy            =      -0.0000000000000002 [Eh]
	 Same-Spin Energy          =      -0.6707368584649589 [Eh]
	 Opposite-Spin Energy      =      -2.0160403199559900 [Eh]
	 Correlation Energy        =      -2.6867771784209489 [Eh]
	 Total Energy              =    -653.2380065977906725 [Eh]

	 ================> DF-SCS-MP2 Energies <==================
	-----------------------------------------------------------
	 SCS Same-Spin Scale       =       0.3333333333333333 [-]
	 SCS Opposite-Spin Scale   =       1.2000000000000000 [-]
	 SCS Same-Spin Energy      =      -0.2235789528216530 [Eh]
	 SCS Opposite-Spin Energy  =      -2.4192483839471879 [Eh]
	 SCS Correlation Energy    =      -2.6428273367688409 [Eh]
	 SCS Total Energy          =    -653.1940567561385933 [Eh]
	-----------------------------------------------------------

  -Total Gradient:
     Atom            X                  Y                   Z
    ------   -----------------  -----------------  -----------------
       1        0.014562867806     0.004555858307    -0.005002262035
       2       -0.001190781286    -0.002397399865     0.011288171155
       3       -0.015411260999     0.014056591344     0.009524131867
       4       -0.007354169195     0.009879222369     0.002624476335
       5       -0.009828619874     0.008558427790    -0.001006351911
       6        0.000602775575    -0.001516091100    -0.011441968124
       7        0.008500295244    -0.002042046316     0.005426161775
       8       -0.010096917376    -0.009059273398     0.000458062171
       9       -0.007172485135    -0.023382633147     0.006389215835
      10        0.001218249112     0.000285993777    -0.012864944516
      11        0.022808476209    -0.010128393631    -0.007771587395
      12       -0.001281565412     0.000992295589     0.002070262753
      13       -0.006467826104     0.005119823988     0.007656989306
      14        0.013745904424     0.002021724018    -0.011673840186
      15       -0.000580673189     0.001218077815    -0.005481128769
      16       -0.003892889416     0.003823189467    -0.005108499194
      17       -0.004245398380    -0.000235449259     0.011146710900
      18       -0.004663610088     0.002517111444    -0.002773334670
      19       -0.001083461835     0.000571117208     0.004223205614
      20        0.004733699540    -0.001857895084     0.001024393874
      21        0.001551089602    -0.000664573952    -0.002084973517
      22        0.005359713608    -0.001205965499    -0.002311183178
      23        0.000186587149    -0.001109711864     0.005688291916

*** Psi4 exiting successfully. Buy a developer a beer!
