                               Psi4 1.1 release

  ==> Input File <==

--------------------------------------------------------------------------

memory 5 Gb

molecule phepyrF {
  symmetry C1
  0 1
  C      1.885   -1.036   -0.112
  C      0.807   -0.463   0.561
  C      2.921   -1.631   0.608
  C      0.764   -0.484   1.955
  C      4.892   -1.481   3.403
  C      4.057   -3.655   2.805
  C      5.903   -2.121   4.102
  C      5.105   -4.198   3.530
  C      2.878   -1.652   2.002
  C      3.955   -2.270   2.745
  C      1.800   -1.079   2.676
  N      6.034   -3.464   4.183
  F      1.744   -1.089   4.016
  H      1.918   -1.020   -1.198
  H      0.000   -0.000   -0.000
  H      3.755   -2.073   0.068
  H      -0.076   -0.038   2.480
  H      4.846   -0.397   3.380
  H      3.344   -4.303   2.304
  H      6.658   -1.550   4.633
  H      5.229   -5.273   3.607
  units Angstrom
}

dih_string = "3 9 10 5 105"
set optking { opt_coordinates = cartesian
              fixed_dihedral = $dih_string
              dynamic_level = 1
              geom_maxiter = 250
              print_trajectory_xyz_file = True }

optimize('MP2/aug-cc-PVTZ')
--------------------------------------------------------------------------

    Molecular point group: c1
  Charge       = 0
  Multiplicity = 1
  Basis Set: AUG-CC-PVTZ
    Blend: AUG-CC-PVTZ
  Basis Set: (AUG-CC-PVTZ AUX)
    Blend: AUG-CC-PVTZ-JKFIT
  @DF-RHF Final Energy:  -575.28287617356295
    Total Energy =                       -575.2828761735629541
  Basis Set: (AUG-CC-PVTZ AUX)
    Blend: AUG-CC-PVTZ-RI
    Molecular point group: c1
  Basis Set: AUG-CC-PVTZ
    Blend: AUG-CC-PVTZ
  Basis Set: (AUG-CC-PVTZ AUX)
    Blend: AUG-CC-PVTZ-JKFIT
  Basis Set: (AUG-CC-PVTZ AUX)
    Blend: AUG-CC-PVTZ-JKFIT
	 Reference Energy          =    -575.2828761735629541 [Eh]
	 Singles Energy            =      -0.0000000000000001 [Eh]
	 Same-Spin Energy          =      -0.6075404163372882 [Eh]
	 Opposite-Spin Energy      =      -1.8318715314952854 [Eh]
	 Correlation Energy        =      -2.4394119478325735 [Eh]
	 Total Energy              =    -577.7222881213955361 [Eh]
	 SCS Total Energy          =    -577.6836354834697431 [Eh]
  @DF-RHF Final Energy:  -575.28818209861640
    Total Energy =                       -575.2881820986164030
  @DF-RHF Final Energy:  -575.28957836893767
    Total Energy =                       -575.2895783689376685
  @DF-RHF Final Energy:  -575.28953444990509
    Total Energy =                       -575.2895344499050907
  @DF-RHF Final Energy:  -575.28937837115336
    Total Energy =                       -575.2893783711533615
  @DF-RHF Final Energy:  -575.28945315131534
    Total Energy =                       -575.2894531513153424
  @DF-RHF Final Energy:  -575.28945061181469
    Total Energy =                       -575.2894506118146865
  @DF-RHF Final Energy:  -575.28944445532443
    Total Energy =                       -575.2894444553244284
  Charge       = 0
  Multiplicity = 1
  Basis Set: AUG-CC-PVTZ
    Blend: AUG-CC-PVTZ
  Basis Set: (AUG-CC-PVTZ AUX)
    Blend: AUG-CC-PVTZ-JKFIT

    Orbital Energies (a.u.)
    -----------------------

    Doubly Occupied:

       1A    -26.315746     2A    -15.565022     3A    -11.336302
       4A    -11.274174     5A    -11.273630     6A    -11.268715
       7A    -11.260520     8A    -11.256103     9A    -11.255645
      10A    -11.250573    11A    -11.246866    12A    -11.240500
      13A    -11.239783    14A     -1.634495    15A     -1.261365
      16A     -1.185667    17A     -1.115160    18A     -1.038002
      19A     -1.035970    20A     -1.028751    21A     -0.891742
      22A     -0.865893    23A     -0.855109    24A     -0.825662
      25A     -0.755232    26A     -0.723444    27A     -0.711322
      28A     -0.702562    29A     -0.671294    30A     -0.669177
      31A     -0.652496    32A     -0.626186    33A     -0.612707
      34A     -0.599311    35A     -0.591818    36A     -0.549421
      37A     -0.536141    38A     -0.529724    39A     -0.517647
      40A     -0.510831    41A     -0.419676    42A     -0.388498
      43A     -0.357159    44A     -0.348702    45A     -0.346628

  @DF-RHF Final Energy:  -575.28945061471347

   => Energetics <=

    Nuclear Repulsion Energy =            714.9899368596003342
    One-Electron Energy =               -2201.8760470146680746
    Two-Electron Energy =                 911.5966595403543806
    DFT Exchange-Correlation Energy =       0.0000000000000000
    Empirical Dispersion Energy =           0.0000000000000000
    PCM Polarization Energy =               0.0000000000000000
    EFP Energy =                            0.0000000000000000
    Total Energy =                       -575.2894506147134734
  Basis Set: (AUG-CC-PVTZ AUX)
    Blend: AUG-CC-PVTZ-RI
    Molecular point group: c1
  Basis Set: AUG-CC-PVTZ
    Blend: AUG-CC-PVTZ
  Basis Set: (AUG-CC-PVTZ AUX)
    Blend: AUG-CC-PVTZ-JKFIT
  Basis Set: (AUG-CC-PVTZ AUX)
    Blend: AUG-CC-PVTZ-JKFIT
	 Reference Energy          =    -575.2894506147134734 [Eh]
	 Singles Energy            =      -0.0000000000000001 [Eh]
	 Same-Spin Energy          =      -0.6066811592656907 [Eh]
	 Opposite-Spin Energy      =      -1.8293706354688903 [Eh]
	 Correlation Energy        =      -2.4360517947345812 [Eh]
	 Total Energy              =    -577.7255024094480405 [Eh]

	 ================> DF-SCS-MP2 Energies <==================
	-----------------------------------------------------------
	 SCS Same-Spin Scale       =       0.3333333333333333 [-]
	 SCS Opposite-Spin Scale   =       1.2000000000000000 [-]
	 SCS Same-Spin Energy      =      -0.2022270530885635 [Eh]
	 SCS Opposite-Spin Energy  =      -2.1952447625626683 [Eh]
	 SCS Correlation Energy    =      -2.3974718156512318 [Eh]
	 SCS Total Energy          =    -577.6869224303646888 [Eh]
	-----------------------------------------------------------

  -Total Gradient:
     Atom            X                  Y                   Z
    ------   -----------------  -----------------  -----------------
       1        0.000034263729     0.000105237709     0.000017811853
       2        0.000029164693    -0.000043394182    -0.000065749538
       3        0.000813566630     0.001541153222     0.000005288089
       4       -0.000051083448    -0.000023972097     0.000050286119
       5        0.001096146710     0.000027036871    -0.001549466023
       6        0.000060968701    -0.000020239603    -0.000049264249
       7        0.000046515849    -0.000094517192     0.000066397945
       8        0.000029703702     0.000048667705     0.000122282894
       9       -0.000712518380    -0.002539317523    -0.000801909126
      10       -0.001228607374     0.000875563115     0.002309160059
      11       -0.000067267668     0.000074096624    -0.000114341704
      12       -0.000077828509     0.000039072968    -0.000061486117
      13        0.000003115703    -0.000019709111     0.000091374078
      14        0.000005415040    -0.000008022853     0.000005950678
      15       -0.000011988900     0.000014290135     0.000004711467
      16        0.000045484639     0.000031855257     0.000036122872
      17        0.000019391708     0.000011213478     0.000013610697
      18       -0.000008502213    -0.000008453469    -0.000012762075
      19       -0.000034419001     0.000007112326     0.000018160310
      20        0.000005776304     0.000030319115    -0.000040977399
      21        0.000002702076    -0.000047992485    -0.000045200831

  **** Optimization is complete! (in 8 steps) ****
    Final optimized geometry and variables:
    Molecular point group: c1

    Geometry (in Angstrom), charge = 0, multiplicity = 1:

    C           -1.390221881800     0.829946896509    -2.663539126515
    C           -2.448717204067     1.434304868925    -1.999424251069
    C           -0.376390505066     0.221875827124    -1.938572261041
    C           -2.492370523190     1.434190074946    -0.612715354352
    C            1.620382777207     0.363679353514     0.896707559267
    C            0.843890328976    -1.791946510518     0.269810724685
    C            2.654595551959    -0.261687866835     1.575558109054
    C            1.912054677898    -2.326847100741     0.974364467682
    C           -0.401563805063     0.201832025925    -0.546041195688
    C            0.683041164419    -0.413115113047     0.227802051706
    C           -1.469116479044     0.824261923503     0.083573163620
    N            2.813041010185    -1.586562105933     1.623142472738
    F           -1.510965683319     0.825799153605     1.428397645090
    H           -1.352633843759     0.836044490302    -3.741361218639
    H           -3.241059733659     1.909445364527    -2.556500737346
    H            0.455617880705    -0.244442828833    -2.444830437374
    H           -3.300360210906     1.895399271617    -0.068589943325
    H            1.542692884671     1.440361387884     0.888139418447
    H            0.142035152380    -2.438437992548    -0.235436246780
    H            3.392907173911     0.326941547420     2.101572107252
    H            2.050930082625    -3.397924324802     1.019877518087

*** Psi4 exiting successfully. Buy a developer a beer!
