                               Psi4 1.1 release

  ==> Input File <==

--------------------------------------------------------------------------

memory 5000 mb

molecule butane {
  symmetry C1
  0 1
  H      1.552   1.757   -8.117
  H      1.991   2.020   -9.788
  H      1.849   0.394   -9.167
  C      2.142   1.395   -8.932
  H      4.169   2.051   -9.210
  H      3.731   1.788   -7.539
  C      3.631   1.416   -8.537
  H      3.665   -0.647   -7.940
  H      4.104   -0.384   -9.610
  C      4.203   -0.012   -8.612
  H      6.088   -0.983   -8.270
  H      5.791   0.381   -7.220
  H      6.230   0.644   -8.890
  C      5.691   0.009   -8.218
  units Angstrom
}

dih_string = "10 7 4 3 0.001"
set optking fixed_dihedral = $dih_string

optimize('MP2/aug-cc-pvtz')
--------------------------------------------------------------------------

    Molecular point group: c1
  Charge       = 0
  Multiplicity = 1
  Basis Set: AUG-CC-PVTZ
    Blend: AUG-CC-PVTZ
  Basis Set: (AUG-CC-PVTZ AUX)
    Blend: AUG-CC-PVTZ-JKFIT
  @DF-RHF Final Energy:  -157.34719023481372
    Total Energy =                       -157.3471902348137235
  Basis Set: (AUG-CC-PVTZ AUX)
    Blend: AUG-CC-PVTZ-RI
    Molecular point group: c1
  Basis Set: AUG-CC-PVTZ
    Blend: AUG-CC-PVTZ
  Basis Set: (AUG-CC-PVTZ AUX)
    Blend: AUG-CC-PVTZ-JKFIT
  Basis Set: (AUG-CC-PVTZ AUX)
    Blend: AUG-CC-PVTZ-JKFIT
	 Reference Energy          =    -157.3471902348137235 [Eh]
	 Singles Energy            =      -0.0000000000000000 [Eh]
	 Same-Spin Energy          =      -0.1654845624307481 [Eh]
	 Opposite-Spin Energy      =      -0.6394780058618466 [Eh]
	 Correlation Energy        =      -0.8049625682925947 [Eh]
	 Total Energy              =    -158.1521528031063042 [Eh]
	 SCS Total Energy          =    -158.1697253626581983 [Eh]
  @DF-RHF Final Energy:  -157.35012154483596
    Total Energy =                       -157.3501215448359574
  @DF-RHF Final Energy:  -157.35102365205003
    Total Energy =                       -157.3510236520500314
  @DF-RHF Final Energy:  -157.35129606126233
    Total Energy =                       -157.3512960612623317
  Charge       = 0
  Multiplicity = 1
  Basis Set: AUG-CC-PVTZ
    Blend: AUG-CC-PVTZ
  Basis Set: (AUG-CC-PVTZ AUX)
    Blend: AUG-CC-PVTZ-JKFIT

    Orbital Energies (a.u.)
    -----------------------

    Doubly Occupied:

       1A    -11.211691     2A    -11.210886     3A    -11.205887
       4A    -11.205520     5A     -1.072604     6A     -0.980137
       7A     -0.862040     8A     -0.788951     9A     -0.638685
      10A     -0.583465    11A     -0.577755    12A     -0.569565
      13A     -0.511137    14A     -0.497086    15A     -0.470373
      16A     -0.456579    17A     -0.456067

  @DF-RHF Final Energy:  -157.35127428411192

   => Energetics <=

    Nuclear Repulsion Energy =            131.2697499656117373
    One-Electron Energy =                -470.6451906646667567
    Two-Electron Energy =                 182.0241664149431244
    DFT Exchange-Correlation Energy =       0.0000000000000000
    Empirical Dispersion Energy =           0.0000000000000000
    PCM Polarization Energy =               0.0000000000000000
    EFP Energy =                            0.0000000000000000
    Total Energy =                       -157.3512742841119234
  Basis Set: (AUG-CC-PVTZ AUX)
    Blend: AUG-CC-PVTZ-RI
    Molecular point group: c1
  Basis Set: AUG-CC-PVTZ
    Blend: AUG-CC-PVTZ
  Basis Set: (AUG-CC-PVTZ AUX)
    Blend: AUG-CC-PVTZ-JKFIT
  Basis Set: (AUG-CC-PVTZ AUX)
    Blend: AUG-CC-PVTZ-JKFIT
	 Reference Energy          =    -157.3512742841119234 [Eh]
	 Singles Energy            =      -0.0000000000000000 [Eh]
	 Same-Spin Energy          =      -0.1654445760373213 [Eh]
	 Opposite-Spin Energy      =      -0.6398947158221961 [Eh]
	 Correlation Energy        =      -0.8053392918595175 [Eh]
	 Total Energy              =    -158.1566135759714484 [Eh]

	 ================> DF-SCS-MP2 Energies <==================
	-----------------------------------------------------------
	 SCS Same-Spin Scale       =       0.3333333333333333 [-]
	 SCS Opposite-Spin Scale   =       1.2000000000000000 [-]
	 SCS Same-Spin Energy      =      -0.0551481920124404 [Eh]
	 SCS Opposite-Spin Energy  =      -0.7678736589866354 [Eh]
	 SCS Correlation Energy    =      -0.8230218509990759 [Eh]
	 SCS Total Energy          =    -158.1742961351110068 [Eh]
	-----------------------------------------------------------

  -Total Gradient:
     Atom            X                  Y                   Z
    ------   -----------------  -----------------  -----------------
       1       -0.000027531691     0.000036777463     0.000049878521
       2       -0.000001323199     0.000047992984    -0.000038798737
       3       -0.000006901182    -0.000044771444    -0.000009014650
       4        0.000052999976    -0.000065563889    -0.000000254702
       5       -0.000005109749     0.000000708472    -0.000033878967
       6       -0.000021642438    -0.000006708727     0.000027576315
       7        0.000069302589    -0.000005725879     0.000015035750
       8       -0.000017526270    -0.000010814208     0.000032798402
       9        0.000000802281     0.000000154085    -0.000040492044
      10        0.000030720552     0.000018933789     0.000010673741
      11        0.000027752283    -0.000062425022    -0.000002123939
      12        0.000022111046     0.000021466454     0.000064333078
      13        0.000046389250     0.000036003223    -0.000035343115
      14       -0.000170043446     0.000033972697    -0.000040389653

  **** Optimization is complete! (in 5 steps) ****
    Final optimized geometry and variables:
    Molecular point group: c1

    Geometry (in Angstrom), charge = 0, multiplicity = 1:

    H           -2.417927891855     1.057500544839     0.447938850244
    H           -1.977652663606     1.321529613193    -1.227897243230
    H           -2.124304395592    -0.310343722802    -0.606984376599
    C           -1.788244094555     0.695121595308    -0.360281608964
    H            0.258533576303     1.350480959333    -0.630242894490
    H           -0.179054231110     1.088025819391     1.035348440695
    C           -0.306019724743     0.690379124574     0.028374595194
    H           -0.242480857922    -1.357318910704     0.636594879792
    H            0.196738622679    -1.093881367121    -1.034964190054
    C            0.314468805556    -0.693617876927    -0.026702947760
    H            2.209196717879    -1.690539572286     0.314079447249
    H            1.911673106610    -0.315284034702     1.371971118938
    H            2.353357977889    -0.050416143556    -0.308973920353
    C            1.780796123193    -0.691862114143     0.358872826470

*** Psi4 exiting successfully. Buy a developer a beer!
