                               Psi4 1.1 release

  ==> Input File <==

--------------------------------------------------------------------------

memory 5000 mb

molecule butane {
  symmetry C1
  0 1
  H      1.577   0.907   -8.166
  H      1.790   2.399   -9.050
  H      2.025   0.866   -9.854
  C      2.142   1.395   -8.932
  H      4.169   2.051   -9.210
  H      3.731   1.788   -7.539
  C      3.631   1.416   -8.537
  H      3.665   -0.647   -7.940
  H      4.104   -0.384   -9.610
  C      4.203   -0.012   -8.612
  H      6.088   -0.983   -8.270
  H      5.791   0.381   -7.220
  H      6.230   0.644   -8.890
  C      5.691   0.009   -8.218
  units Angstrom
}

dih_string = "10 7 4 3 310"
set optking fixed_dihedral = $dih_string

optimize('MP2/aug-cc-pvtz')
--------------------------------------------------------------------------

    Molecular point group: c1
  Charge       = 0
  Multiplicity = 1
  Basis Set: AUG-CC-PVTZ
    Blend: AUG-CC-PVTZ
  Basis Set: (AUG-CC-PVTZ AUX)
    Blend: AUG-CC-PVTZ-JKFIT
  @DF-RHF Final Energy:  -157.35243909983373
    Total Energy =                       -157.3524390998337310
  Basis Set: (AUG-CC-PVTZ AUX)
    Blend: AUG-CC-PVTZ-RI
    Molecular point group: c1
  Basis Set: AUG-CC-PVTZ
    Blend: AUG-CC-PVTZ
  Basis Set: (AUG-CC-PVTZ AUX)
    Blend: AUG-CC-PVTZ-JKFIT
  Basis Set: (AUG-CC-PVTZ AUX)
    Blend: AUG-CC-PVTZ-JKFIT
	 Reference Energy          =    -157.3524390998337310 [Eh]
	 Singles Energy            =      -0.0000000000000001 [Eh]
	 Same-Spin Energy          =      -0.1653746567495550 [Eh]
	 Opposite-Spin Energy      =      -0.6387043777374352 [Eh]
	 Correlation Energy        =      -0.8040790344869903 [Eh]
	 Total Energy              =    -158.1565181343207200 [Eh]
	 SCS Total Energy          =    -158.1740092387018422 [Eh]
  @DF-RHF Final Energy:  -157.35508386286091
    Total Energy =                       -157.3550838628609085
  @DF-RHF Final Energy:  -157.35587655704731
    Total Energy =                       -157.3558765570473099
  @DF-RHF Final Energy:  -157.35611194535798
    Total Energy =                       -157.3561119453579806
  Charge       = 0
  Multiplicity = 1
  Basis Set: AUG-CC-PVTZ
    Blend: AUG-CC-PVTZ
  Basis Set: (AUG-CC-PVTZ AUX)
    Blend: AUG-CC-PVTZ-JKFIT

    Orbital Energies (a.u.)
    -----------------------

    Doubly Occupied:

       1A    -11.211425     2A    -11.210776     3A    -11.206074
       4A    -11.206027     5A     -1.074498     6A     -0.982179
       7A     -0.860924     8A     -0.788028     9A     -0.641024
      10A     -0.586051    11A     -0.577570    12A     -0.567657
      13A     -0.514687    14A     -0.493883    15A     -0.470000
      16A     -0.461082    17A     -0.456911

  @DF-RHF Final Energy:  -157.35610410049787

   => Energetics <=

    Nuclear Repulsion Energy =            131.5599325185552289
    One-Electron Energy =                -471.2144816582133444
    Two-Electron Energy =                 182.2984450391602422
    DFT Exchange-Correlation Energy =       0.0000000000000000
    Empirical Dispersion Energy =           0.0000000000000000
    PCM Polarization Energy =               0.0000000000000000
    EFP Energy =                            0.0000000000000000
    Total Energy =                       -157.3561041004978733
  Basis Set: (AUG-CC-PVTZ AUX)
    Blend: AUG-CC-PVTZ-RI
    Molecular point group: c1
  Basis Set: AUG-CC-PVTZ
    Blend: AUG-CC-PVTZ
  Basis Set: (AUG-CC-PVTZ AUX)
    Blend: AUG-CC-PVTZ-JKFIT
  Basis Set: (AUG-CC-PVTZ AUX)
    Blend: AUG-CC-PVTZ-JKFIT
	 Reference Energy          =    -157.3561041004978733 [Eh]
	 Singles Energy            =      -0.0000000000000000 [Eh]
	 Same-Spin Energy          =      -0.1654666346679587 [Eh]
	 Opposite-Spin Energy      =      -0.6392006257502592 [Eh]
	 Correlation Energy        =      -0.8046672604182179 [Eh]
	 Total Energy              =    -158.1607713609161010 [Eh]

	 ================> DF-SCS-MP2 Energies <==================
	-----------------------------------------------------------
	 SCS Same-Spin Scale       =       0.3333333333333333 [-]
	 SCS Opposite-Spin Scale   =       1.2000000000000000 [-]
	 SCS Same-Spin Energy      =      -0.0551555448893196 [Eh]
	 SCS Opposite-Spin Energy  =      -0.7670407509003110 [Eh]
	 SCS Correlation Energy    =      -0.8221962957896306 [Eh]
	 SCS Total Energy          =    -158.1783003962875114 [Eh]
	-----------------------------------------------------------

  -Total Gradient:
     Atom            X                  Y                   Z
    ------   -----------------  -----------------  -----------------
       1       -0.000021710002     0.000010169176     0.000013807009
       2       -0.000015386473     0.000071897489    -0.000020887103
       3       -0.000209683484    -0.001269530404     0.000693723207
       4        0.000452743875     0.001527238103    -0.001245200614
       5       -0.000012841479     0.000005662310     0.000003947090
       6       -0.000002912811    -0.000024129747     0.000054064139
       7       -0.000385087625    -0.000515364121     0.001526579082
       8       -0.000016938099    -0.000007491540     0.000032291334
       9        0.000004445569     0.000009650183    -0.000007296954
      10        0.000270315957     0.000146459129    -0.001041811397
      11        0.000012325705    -0.000046180760     0.000001107727
      12        0.000018338506     0.000018044588     0.000049677700
      13        0.000036516747     0.000026115916    -0.000024802284
      14       -0.000130126386     0.000047459678    -0.000035198933

  **** Optimization is complete! (in 5 steps) ****
    Final optimized geometry and variables:
    Molecular point group: c1

    Geometry (in Angstrom), charge = 0, multiplicity = 1:

    H           -2.363703550166     0.189674454623     0.411226683373
    H           -2.165361708450     1.706982564478    -0.457170666307
    H           -1.935559814918     0.166721247331    -1.287790191475
    C           -1.775302751659     0.697720677610    -0.350896234939
    H            0.248481564426     1.347706541844    -0.656602099497
    H           -0.173286652505     1.106951418017     1.022499456368
    C           -0.303969343635     0.694555991471     0.020934493072
    H           -0.256064494146    -1.358679616763     0.619897765793
    H            0.198781319005    -1.085533601296    -1.046130950440
    C            0.307989145894    -0.691797600812    -0.034537549499
    H            2.196989975445    -1.698938920452     0.312002196500
    H            1.895355510221    -0.334379906815     1.381902176058
    H            2.351944789001    -0.053149347790    -0.292315365023
    C            1.771486451286    -0.699417058631     0.363867804548

*** Psi4 exiting successfully. Buy a developer a beer!
