                               Psi4 1.1 release

  ==> Input File <==

--------------------------------------------------------------------------

memory 5 Gb

molecule phepyrOH_cation {
  symmetry C1
  1 1
  C      1.885   -1.036   -0.112
  C      2.878   -1.652   2.002
  C      0.807   -0.463   0.561
  C      1.800   -1.079   2.676
  C      5.268   -1.573   -0.121
  C      3.889   -3.450   -0.733
  C      6.324   -2.166   -0.798
  C      4.979   -3.996   -1.395
  C      2.921   -1.631   0.608
  C      4.040   -2.225   -0.090
  C      0.764   -0.484   1.955
  N      6.151   -3.346   -1.409
  O      -0.288   0.076   2.612
  H      1.904   -1.012   -1.199
  H      3.678   -2.112   2.578
  H      0.003   -0.001   -0.006
  H      1.772   -1.098   3.762
  H      5.415   -0.616   0.372
  H      2.942   -3.982   -0.726
  H      7.311   -1.733   -0.873
  H      4.954   -4.941   -1.920
  H      6.939   -3.765   -1.902
  H      -0.175   -0.018   3.571
  units Angstrom
}

dih_string = "1 9 10 5 105"
set optking fixed_dihedral = $dih_string

optimize('MP2/aug-cc-PVTZ')
--------------------------------------------------------------------------

    Molecular point group: c1
  Charge       = 1
  Multiplicity = 1
  Basis Set: AUG-CC-PVTZ
    Blend: AUG-CC-PVTZ
  Basis Set: (AUG-CC-PVTZ AUX)
    Blend: AUG-CC-PVTZ-JKFIT
  @DF-RHF Final Energy:  -551.67020925327131
    Total Energy =                       -551.6702092532713095
  Basis Set: (AUG-CC-PVTZ AUX)
    Blend: AUG-CC-PVTZ-RI
    Molecular point group: c1
  Basis Set: AUG-CC-PVTZ
    Blend: AUG-CC-PVTZ
  Basis Set: (AUG-CC-PVTZ AUX)
    Blend: AUG-CC-PVTZ-JKFIT
  Basis Set: (AUG-CC-PVTZ AUX)
    Blend: AUG-CC-PVTZ-JKFIT
	 Reference Energy          =    -551.6702092532713095 [Eh]
	 Singles Energy            =      -0.0000000000000011 [Eh]
	 Same-Spin Energy          =      -0.5959514575158535 [Eh]
	 Opposite-Spin Energy      =      -1.8247610300182355 [Eh]
	 Correlation Energy        =      -2.4207124875340904 [Eh]
	 Total Energy              =    -554.0909217408053564 [Eh]
	 SCS Total Energy          =    -554.0585729751318240 [Eh]
  @DF-RHF Final Energy:  -551.67462477748563
    Total Energy =                       -551.6746247774856329
  @DF-RHF Final Energy:  -551.67536570391644
    Total Energy =                       -551.6753657039164409
  @DF-RHF Final Energy:  -551.67541727733987
    Total Energy =                       -551.6754172773398750
  @DF-RHF Final Energy:  -551.67540800162487
    Total Energy =                       -551.6754080016248736
  @DF-RHF Final Energy:  -551.67546938364626
    Total Energy =                       -551.6754693836462593
  @DF-RHF Final Energy:  -551.67592883767236
    Total Energy =                       -551.6759288376723589
  @DF-RHF Final Energy:  -551.67551337928012
    Total Energy =                       -551.6755133792801189
  @DF-RHF Final Energy:  -551.67537520217502
    Total Energy =                       -551.6753752021750188
  Charge       = 1
  Multiplicity = 1
  Basis Set: AUG-CC-PVTZ
    Blend: AUG-CC-PVTZ
  Basis Set: (AUG-CC-PVTZ AUX)
    Blend: AUG-CC-PVTZ-JKFIT

    Orbital Energies (a.u.)
    -----------------------

    Doubly Occupied:

       1A    -20.695744     2A    -15.841607     3A    -11.487650
       4A    -11.487602     5A    -11.450936     6A    -11.419911
       7A    -11.417362     8A    -11.416885     9A    -11.369118
      10A    -11.367571    11A    -11.366402    12A    -11.348456
      13A    -11.342252    14A     -1.517962    15A     -1.517393
      16A     -1.317879    17A     -1.264005    18A     -1.245252
      19A     -1.152487    20A     -1.145889    21A     -1.068872
      22A     -1.058356    23A     -0.972982    24A     -0.968583
      25A     -0.946900    26A     -0.874419    27A     -0.859812
      28A     -0.852161    29A     -0.820987    30A     -0.805269
      31A     -0.789525    32A     -0.776527    33A     -0.751042
      34A     -0.729582    35A     -0.714505    36A     -0.710690
      37A     -0.700624    38A     -0.684674    39A     -0.650408
      40A     -0.617895    41A     -0.608379    42A     -0.574832
      43A     -0.543227    44A     -0.465216    45A     -0.434589

  @DF-RHF Final Energy:  -551.67538817716081

   => Energetics <=

    Nuclear Repulsion Energy =            712.7468684167481570
    One-Electron Energy =               -2148.5396704277791287
    Two-Electron Energy =                 884.1174138338701596
    DFT Exchange-Correlation Energy =       0.0000000000000000
    Empirical Dispersion Energy =           0.0000000000000000
    PCM Polarization Energy =               0.0000000000000000
    EFP Energy =                            0.0000000000000000
    Total Energy =                       -551.6753881771608121
  Basis Set: (AUG-CC-PVTZ AUX)
    Blend: AUG-CC-PVTZ-RI
    Molecular point group: c1
  Basis Set: AUG-CC-PVTZ
    Blend: AUG-CC-PVTZ
  Basis Set: (AUG-CC-PVTZ AUX)
    Blend: AUG-CC-PVTZ-JKFIT
  Basis Set: (AUG-CC-PVTZ AUX)
    Blend: AUG-CC-PVTZ-JKFIT
	 Reference Energy          =    -551.6753881771608121 [Eh]
	 Singles Energy            =      -0.0000000000000003 [Eh]
	 Same-Spin Energy          =      -0.5955130510440798 [Eh]
	 Opposite-Spin Energy      =      -1.8231507133884832 [Eh]
	 Correlation Energy        =      -2.4186637644325635 [Eh]
	 Total Energy              =    -554.0940519415934205 [Eh]

	 ================> DF-SCS-MP2 Energies <==================
	-----------------------------------------------------------
	 SCS Same-Spin Scale       =       0.3333333333333333 [-]
	 SCS Opposite-Spin Scale   =       1.2000000000000000 [-]
	 SCS Same-Spin Energy      =      -0.1985043503480266 [Eh]
	 SCS Opposite-Spin Energy  =      -2.1877808560661798 [Eh]
	 SCS Correlation Energy    =      -2.3862852064142070 [Eh]
	 SCS Total Energy          =    -554.0616733835749983 [Eh]
	-----------------------------------------------------------

  -Total Gradient:
     Atom            X                  Y                   Z
    ------   -----------------  -----------------  -----------------
       1        0.002363149575     0.004475319013     0.000218356556
       2        0.000043166892    -0.000067113181     0.000052441113
       3        0.000031011808    -0.000024193535    -0.000112685335
       4       -0.000054951944     0.000050827879     0.000021420153
       5       -0.001394931092     0.002452341270    -0.004299794868
       6       -0.000029224540    -0.000057769539    -0.000019624638
       7        0.000022101960     0.000048201554     0.000010048516
       8        0.000011294447     0.000003057087     0.000000653737
       9       -0.004172075999    -0.005417213352    -0.002623402122
      10        0.003168194008    -0.001420864964     0.006650081362
      11        0.000008107238     0.000013187931     0.000114340640
      12       -0.000002340343    -0.000042290008    -0.000022286339
      13       -0.000011335528    -0.000006277170    -0.000042218304
      14        0.000013359381    -0.000000029487    -0.000054989099
      15        0.000030284860    -0.000004968495     0.000018204803
      16       -0.000034216745     0.000026658137     0.000003103356
      17       -0.000002968986     0.000004377298     0.000054607905
      18        0.000005264437     0.000064708715     0.000038617213
      19       -0.000045743129    -0.000026208889    -0.000004259445
      20        0.000015613051     0.000007250280     0.000002325782
      21       -0.000000905748    -0.000051612412    -0.000035293712
      22        0.000038598348    -0.000029089243    -0.000027205853
      23       -0.000001451962     0.000001701112     0.000057558584

  **** Optimization is complete! (in 10 steps) ****
    Final optimized geometry and variables:
    Molecular point group: c1

    Geometry (in Angstrom), charge = 1, multiplicity = 1:

    C           -1.301501334231     0.619555546829    -0.541444639665
    C           -0.278094734916     0.130337526215     1.582493356372
    C           -2.348727994063     1.246003817771     0.106034910091
    C           -1.336863020382     0.740987642485     2.232578772125
    C            2.111642666327     0.120100124694    -0.519897385653
    C            0.750445031380    -1.702942577202    -1.257962038943
    C            3.167985154438    -0.401706218456    -1.230339537529
    C            1.823024881817    -2.198782836764    -1.962706296457
    C           -0.267040671061     0.040028366713     0.193051214560
    C            0.879320550514    -0.535433884647    -0.503342796617
    C           -2.375749824089     1.301523467398     1.496138689280
    N            2.990345527499    -1.537886191556    -1.922755995710
    O           -3.434422968618     1.918898132351     2.058109195359
    H           -1.284858652594     0.587233522843    -1.621203168594
    H            0.527916102827    -0.296193088197     2.161608856006
    H           -3.152688686264     1.703680232488    -0.448670066232
    H           -1.352833103654     0.784399943207     3.312076092040
    H            2.244209243513     1.041950728338     0.023645425677
    H           -0.189152553191    -2.231323921427    -1.285209043734
    H            4.142640707068     0.054064377895    -1.283187757326
    H            1.792457368309    -3.099280398951    -2.553332249977
    H            3.773460941819    -1.911103451642    -2.445303805909
    H           -3.359748982028     1.904483604716     3.018312312951

*** Psi4 exiting successfully. Buy a developer a beer!
