                               Psi4 1.1 release

  ==> Input File <==

--------------------------------------------------------------------------

memory 8 Gb

molecule phepyrFOH_neutral {
  symmetry C1
  0 1
  C      1.885   -1.036   -0.112
  C      0.807   -0.463   0.561
  C      4.518   -3.473   0.285
  C      4.634   -1.550   -1.154
  C      1.800   -1.079   2.676
  C      5.588   -3.999   -0.421
  C      5.699   -2.161   -1.795
  C      2.921   -1.631   0.608
  C      4.038   -2.225   -0.095
  C      0.764   -0.484   1.955
  C      2.878   -1.652   2.002
  N      6.193   -3.373   -1.455
  O      -0.289   0.076   2.612
  F      3.866   -2.220   2.709
  H      1.904   -1.012   -1.199
  H      0.002   -0.002   -0.006
  H      4.078   -4.031   1.106
  H      4.287   -0.574   -1.478
  H      1.772   -1.099   3.762
  H      5.998   -4.970   -0.165
  H      6.200   -1.676   -2.626
  H      -0.175   -0.018   3.571
  units Angstrom
}

dih_string = "1 8 9 3 225"
set optking { fixed_dihedral = $dih_string
              opt_coordinates = cartesian
              dynamic_level = 1
              geom_maxiter = 250
              print_trajectory_xyz_file = True }

optimize('MP2/aug-cc-PVTZ')
--------------------------------------------------------------------------

    Molecular point group: c1
  Charge       = 0
  Multiplicity = 1
  Basis Set: AUG-CC-PVTZ
    Blend: AUG-CC-PVTZ
  Basis Set: (AUG-CC-PVTZ AUX)
    Blend: AUG-CC-PVTZ-JKFIT
  @DF-RHF Final Energy:  -650.17340017733432
    Total Energy =                       -650.1734001773343152
  Basis Set: (AUG-CC-PVTZ AUX)
    Blend: AUG-CC-PVTZ-RI
    Molecular point group: c1
  Basis Set: AUG-CC-PVTZ
    Blend: AUG-CC-PVTZ
  Basis Set: (AUG-CC-PVTZ AUX)
    Blend: AUG-CC-PVTZ-JKFIT
  Basis Set: (AUG-CC-PVTZ AUX)
    Blend: AUG-CC-PVTZ-JKFIT
	 Reference Energy          =    -650.1734001773343152 [Eh]
	 Singles Energy            =      -0.0000000000000002 [Eh]
	 Same-Spin Energy          =      -0.6780303228909579 [Eh]
	 Opposite-Spin Energy      =      -2.0199845833385881 [Eh]
	 Correlation Energy        =      -2.6980149062295462 [Eh]
	 Total Energy              =    -652.8714150835638748 [Eh]
	 SCS Total Energy          =    -652.8233917849709087 [Eh]
  @DF-RHF Final Energy:  -650.17340016906223
    Total Energy =                       -650.1734001690622335
  @DF-RHF Final Energy:  -650.18064767414046
    Total Energy =                       -650.1806476741405731
  @DF-RHF Final Energy:  -650.18171276357282
    Total Energy =                       -650.1817127635727047
  @DF-RHF Final Energy:  -650.18154329917013
    Total Energy =                       -650.1815432991702437
  @DF-RHF Final Energy:  -650.18187393284791
    Total Energy =                       -650.1818739328477932
  @DF-RHF Final Energy:  -650.18199932976506
    Total Energy =                       -650.1819993297651763
  @DF-RHF Final Energy:  -650.18198165845820
    Total Energy =                       -650.1819816584581986
  @DF-RHF Final Energy:  -650.18197143708596
    Total Energy =                       -650.1819714370858492
  Charge       = 0
  Multiplicity = 1
  Basis Set: AUG-CC-PVTZ
    Blend: AUG-CC-PVTZ
  Basis Set: (AUG-CC-PVTZ AUX)
    Blend: AUG-CC-PVTZ-JKFIT

    Orbital Energies (a.u.)
    -----------------------

    Doubly Occupied:

       1A    -26.323407     2A    -20.611712     3A    -15.561691
       4A    -11.347643     5A    -11.327812     6A    -11.271753
       7A    -11.270694     8A    -11.268272     9A    -11.263342
      10A    -11.254880    11A    -11.251715    12A    -11.241812
      13A    -11.237908    14A    -11.236109    15A     -1.642073
      16A     -1.429548    17A     -1.258542    18A     -1.186156
      19A     -1.112587    20A     -1.045118    21A     -1.033833
      22A     -1.024724    23A     -0.894677    24A     -0.879466
      25A     -0.854324    26A     -0.828797    27A     -0.774630
      28A     -0.748088    29A     -0.726619    30A     -0.710030
      31A     -0.695851    32A     -0.666787    33A     -0.662479
      34A     -0.640770    35A     -0.636176    36A     -0.617579
      37A     -0.612151    38A     -0.595996    39A     -0.581816
      40A     -0.548145    41A     -0.543452    42A     -0.537136
      43A     -0.517962    44A     -0.500041    45A     -0.417664
      46A     -0.398557    47A     -0.362424    48A     -0.347709
      49A     -0.320889

  @DF-RHF Final Energy:  -650.18196905828040

   => Energetics <=

    Nuclear Repulsion Energy =            814.2549529064683611
    One-Electron Energy =               -2503.2307526080571733
    Two-Electron Energy =                1038.7938306433084108
    DFT Exchange-Correlation Energy =       0.0000000000000000
    Empirical Dispersion Energy =           0.0000000000000000
    PCM Polarization Energy =               0.0000000000000000
    EFP Energy =                            0.0000000000000000
    Total Energy =                       -650.1819690582804014
  Basis Set: (AUG-CC-PVTZ AUX)
    Blend: AUG-CC-PVTZ-RI
    Molecular point group: c1
  Basis Set: AUG-CC-PVTZ
    Blend: AUG-CC-PVTZ
  Basis Set: (AUG-CC-PVTZ AUX)
    Blend: AUG-CC-PVTZ-JKFIT
  Basis Set: (AUG-CC-PVTZ AUX)
    Blend: AUG-CC-PVTZ-JKFIT
	 Reference Energy          =    -650.1819690582804014 [Eh]
	 Singles Energy            =      -0.0000000000000001 [Eh]
	 Same-Spin Energy          =      -0.6768343654464899 [Eh]
	 Opposite-Spin Energy      =      -2.0170777984408890 [Eh]
	 Correlation Energy        =      -2.6939121638873789 [Eh]
	 Total Energy              =    -652.8758812221677772 [Eh]

	 ================> DF-SCS-MP2 Energies <==================
	-----------------------------------------------------------
	 SCS Same-Spin Scale       =       0.3333333333333333 [-]
	 SCS Opposite-Spin Scale   =       1.2000000000000000 [-]
	 SCS Same-Spin Energy      =      -0.2256114551488300 [Eh]
	 SCS Opposite-Spin Energy  =      -2.4204933581290669 [Eh]
	 SCS Correlation Energy    =      -2.6461048132778968 [Eh]
	 SCS Total Energy          =    -652.8280738715583311 [Eh]
	-----------------------------------------------------------

  -Total Gradient:
     Atom            X                  Y                   Z
    ------   -----------------  -----------------  -----------------
       1       -0.000398303821    -0.000733488464    -0.000013575729
       2       -0.000015498677     0.000025323351    -0.000020739941
       3       -0.000473097887    -0.000332971865    -0.000518289796
       4        0.000029833701     0.000022779439     0.000019313572
       5       -0.000002638244    -0.000041732999     0.000015619419
       6       -0.000007658210    -0.000013155698    -0.000005480595
       7       -0.000015954217    -0.000061153504    -0.000058941595
       8        0.000336476599     0.000884923776    -0.000265813537
       9        0.000557669018     0.000156523939     0.000805780920
      10        0.000082096568    -0.000007080796    -0.000013266671
      11       -0.000020704461     0.000075802042     0.000006195920
      12       -0.000000986204     0.000039176277     0.000015137833
      13       -0.000056406096     0.000020413044     0.000002038349
      14        0.000005016796    -0.000010336359     0.000010591206
      15        0.000002199658    -0.000009735524    -0.000006245586
      16        0.000005975983    -0.000015316196     0.000008592745
      17       -0.000024761267    -0.000017477527    -0.000007209155
      18        0.000001638760    -0.000000887593    -0.000005274425
      19       -0.000012241630     0.000003199953     0.000003797917
      20       -0.000012683066    -0.000000067531     0.000000388496
      21        0.000014080406     0.000023626465     0.000006392048
      22        0.000005946294    -0.000008364229     0.000020988600

  **** Optimization is complete! (in 9 steps) ****
    Final optimized geometry and variables:
    Molecular point group: c1

    Geometry (in Angstrom), charge = 0, multiplicity = 1:

    C           -1.304703178104     0.772888707903    -0.747867810091
    C           -2.387243150001     1.342065616247    -0.104338086154
    C            1.377724798344    -1.688566282199    -0.418424402458
    C            1.452017320884     0.208595594979    -1.841929337410
    C           -1.434274752835     0.715153452406     2.008097582215
    C            2.420039584528    -2.220340686720    -1.160453317904
    C            2.490925808798    -0.403504545690    -2.524471790000
    C           -0.260931797765     0.161906071537    -0.050982467201
    C            0.868213928104    -0.438896370820    -0.757371889739
    C           -2.452605247102     1.314309022693     1.281743718910
    C           -0.371575212208     0.152696593446     1.331787282132
    N            2.981899336919    -1.602010643022    -2.202073228254
    O           -3.536442443933     1.885911829137     1.871053895638
    F            0.608887869143    -0.402043664368     2.069804438776
    H           -1.267060673793     0.778884445965    -1.826914650431
    H           -3.189089211771     1.800960070658    -0.659781493340
    H            0.961531579050    -2.245550661207     0.405683856081
    H            1.110422134858     1.188229545542    -2.141041874258
    H           -1.446682860443     0.681442733487     3.086876746330
    H            2.820892596258    -3.192244967226    -0.909330950100
    H            2.954199381344     0.093391811502    -3.365454086676
    H           -3.461953209142     1.798393521507     2.826174634501

*** Psi4 exiting successfully. Buy a developer a beer!
