                               Psi4 1.1 release

  ==> Input File <==

--------------------------------------------------------------------------

memory 5 Gb

molecule phepyrOH_anion {
  symmetry C1
  -1 1
  C      1.885   -1.036   -0.112
  C      2.878   -1.652   2.002
  C      0.807   -0.463   0.561
  C      1.800   -1.079   2.676
  C      3.999   -3.565   -0.461
  C      5.159   -1.460   -0.395
  C      5.095   -4.087   -1.129
  C      6.204   -2.076   -1.065
  C      2.921   -1.631   0.608
  C      4.040   -2.226   -0.090
  C      0.764   -0.484   1.955
  N      6.200   -3.374   -1.442
  O      -0.227   0.042   2.574
  H      1.904   -1.011   -1.199
  H      3.678   -2.112   2.577
  H      0.011   -0.006   -0.025
  H      1.791   -1.108   3.764
  H      3.143   -4.195   -0.242
  H      5.227   -0.412   -0.121
  H      5.112   -5.126   -1.441
  H      7.100   -1.522   -1.325
  units Angstrom
}

dih_string = "1 9 10 5 270"
set optking fixed_dihedral = $dih_string

optimize('MP2/aug-cc-PVTZ')
--------------------------------------------------------------------------

    Molecular point group: c1
  Charge       = -1
  Multiplicity = 1
  Basis Set: AUG-CC-PVTZ
    Blend: AUG-CC-PVTZ
  Basis Set: (AUG-CC-PVTZ AUX)
    Blend: AUG-CC-PVTZ-JKFIT
  @DF-RHF Final Energy:  -550.70718542401823
    Total Energy =                       -550.7071854240182347
  Basis Set: (AUG-CC-PVTZ AUX)
    Blend: AUG-CC-PVTZ-RI
    Molecular point group: c1
  Basis Set: AUG-CC-PVTZ
    Blend: AUG-CC-PVTZ
  Basis Set: (AUG-CC-PVTZ AUX)
    Blend: AUG-CC-PVTZ-JKFIT
  Basis Set: (AUG-CC-PVTZ AUX)
    Blend: AUG-CC-PVTZ-JKFIT
	 Reference Energy          =    -550.7071854240182347 [Eh]
	 Singles Energy            =      -0.0000000000000003 [Eh]
	 Same-Spin Energy          =      -0.6131023190678515 [Eh]
	 Opposite-Spin Energy      =      -1.8375358147401493 [Eh]
	 Correlation Energy        =      -2.4506381338080012 [Eh]
	 Total Energy              =    -553.1578235578261911 [Eh]
	 SCS Total Energy          =    -553.1165958413956787 [Eh]
  @DF-RHF Final Energy:  -550.71371327855377
    Total Energy =                       -550.7137132785537688
  @DF-RHF Final Energy:  -550.71753785364740
    Total Energy =                       -550.7175378536474000
  @DF-RHF Final Energy:  -550.71855410658736
    Total Energy =                       -550.7185541065873622
  @DF-RHF Final Energy:  -550.71855771109529
    Total Energy =                       -550.7185577110952863
  Charge       = -1
  Multiplicity = 1
  Basis Set: AUG-CC-PVTZ
    Blend: AUG-CC-PVTZ
  Basis Set: (AUG-CC-PVTZ AUX)
    Blend: AUG-CC-PVTZ-JKFIT

    Orbital Energies (a.u.)
    -----------------------

    Doubly Occupied:

       1A    -20.300675     2A    -15.464417     3A    -11.172292
       4A    -11.172274     5A    -11.149203     6A    -11.128254
       7A    -11.128211     8A    -11.118165     9A    -11.092463
      10A    -11.092440    11A    -11.072225    12A    -11.053400
      13A    -11.053389    14A     -1.157686    15A     -1.131023
      16A     -1.015234    17A     -0.958558    18A     -0.929667
      19A     -0.857208    20A     -0.833501    21A     -0.752607
      22A     -0.737457    23A     -0.670464    24A     -0.646923
      25A     -0.595535    26A     -0.561599    27A     -0.546224
      28A     -0.511137    29A     -0.492620    30A     -0.485488
      31A     -0.475190    32A     -0.437280    33A     -0.426857
      34A     -0.413736    35A     -0.411467    36A     -0.366080
      37A     -0.362644    38A     -0.345536    39A     -0.318451
      40A     -0.285727    41A     -0.265706    42A     -0.246566
      43A     -0.210640    44A     -0.191533    45A     -0.105282

  @DF-RHF Final Energy:  -550.71855018753593

   => Energetics <=

    Nuclear Repulsion Energy =            680.7895896106140299
    One-Electron Energy =               -2111.5302125290600088
    Two-Electron Energy =                 880.0220727309100539
    DFT Exchange-Correlation Energy =       0.0000000000000000
    Empirical Dispersion Energy =           0.0000000000000000
    PCM Polarization Energy =               0.0000000000000000
    EFP Energy =                            0.0000000000000000
    Total Energy =                       -550.7185501875359250
  Basis Set: (AUG-CC-PVTZ AUX)
    Blend: AUG-CC-PVTZ-RI
    Molecular point group: c1
  Basis Set: AUG-CC-PVTZ
    Blend: AUG-CC-PVTZ
  Basis Set: (AUG-CC-PVTZ AUX)
    Blend: AUG-CC-PVTZ-JKFIT
  Basis Set: (AUG-CC-PVTZ AUX)
    Blend: AUG-CC-PVTZ-JKFIT
	 Reference Energy          =    -550.7185501875359250 [Eh]
	 Singles Energy            =      -0.0000000000000001 [Eh]
	 Same-Spin Energy          =      -0.6119695248296799 [Eh]
	 Opposite-Spin Energy      =      -1.8359850289009394 [Eh]
	 Correlation Energy        =      -2.4479545537306193 [Eh]
	 Total Energy              =    -553.1665047412665217 [Eh]

	 ================> DF-SCS-MP2 Energies <==================
	-----------------------------------------------------------
	 SCS Same-Spin Scale       =       0.3333333333333333 [-]
	 SCS Opposite-Spin Scale   =       1.2000000000000000 [-]
	 SCS Same-Spin Energy      =      -0.2039898416098933 [Eh]
	 SCS Opposite-Spin Energy  =      -2.2031820346811273 [Eh]
	 SCS Correlation Energy    =      -2.4071718762910206 [Eh]
	 SCS Total Energy          =    -553.1257220638269700 [Eh]
	-----------------------------------------------------------

  -Total Gradient:
     Atom            X                  Y                   Z
    ------   -----------------  -----------------  -----------------
       1        0.000000087440     0.000004417593    -0.000020066096
       2        0.000019001431    -0.000006631669     0.000011036756
       3        0.000045677585     0.000053721957     0.000017792695
       4        0.000031326237     0.000064303138    -0.000020434409
       5       -0.000006259384    -0.000015140540     0.000024290705
       6        0.000018468116     0.000009021241     0.000031104325
       7       -0.000030463835     0.000024642437    -0.000104551750
       8       -0.000022497346     0.000013303005    -0.000075474305
       9        0.000036093181    -0.000004123375    -0.000032163544
      10       -0.000015577937     0.000003651607     0.000021614993
      11       -0.000164321358    -0.000179708220     0.000022343143
      12        0.000041490003    -0.000028132040     0.000085845538
      13        0.000089445352     0.000055580822    -0.000025101621
      14       -0.000017035386     0.000001170858    -0.000000182589
      15       -0.000010112954    -0.000002517887     0.000011604397
      16       -0.000015275896     0.000008926483    -0.000019882337
      17        0.000006139089    -0.000003988232     0.000024911029
      18       -0.000002901489    -0.000010084007     0.000012127272
      19        0.000002654954     0.000009423929     0.000006706917
      20       -0.000003322983    -0.000005753920     0.000020440925
      21       -0.000002614823     0.000007916826     0.000008037955

  **** Optimization is complete! (in 6 steps) ****
    Final optimized geometry and variables:
    Molecular point group: c1

    Geometry (in Angstrom), charge = -1, multiplicity = 1:

    C           -1.296269440838     0.732475888325    -0.540924846016
    C           -0.314880733907     0.124093159924     1.547653074857
    C           -2.367692951353     1.301991366393     0.123751106910
    C           -1.382936379247     0.691553238272     2.219465188823
    C            0.892889815437    -1.810494141855    -0.946742109887
    C            2.032447143482     0.255609231808    -0.880856324245
    C            1.986479390533    -2.340126577099    -1.615201821714
    C            3.081916367383    -0.354045756343    -1.551840352009
    C           -0.243241934894     0.129430922850     0.152082449490
    C            0.889688610386    -0.472838342333    -0.555712381438
    C           -2.484538893221     1.319985824704     1.552020595456
    N            3.081376217058    -1.637997184742    -1.924913625130
    O           -3.464746780157     1.842007771345     2.164671582293
    H           -1.268782006800     0.752228741776    -1.624511926863
    H            0.487397966895    -0.336444724229     2.112948419696
    H           -3.168661834975     1.762132660932    -0.440192326978
    H           -1.410613073581     0.672359004554     3.301211830435
    H            0.035648395539    -2.428456080866    -0.723548052620
    H            2.090982051347     1.298174823383    -0.604834541498
    H            1.987315138694    -3.379306570791    -1.917751256385
    H            3.968671749062     0.213248629190    -1.803383268363

*** Psi4 exiting successfully. Buy a developer a beer!
