                               Psi4 1.1 release

  ==> Input File <==

--------------------------------------------------------------------------

memory 5 Gb

molecule phepyrOH_cation {
  symmetry C1
  1 1
  C      1.885   -1.036   -0.112
  C      2.878   -1.652   2.002
  C      0.807   -0.463   0.561
  C      1.800   -1.079   2.676
  C      4.440   -1.719   -1.322
  C      4.716   -3.305   0.469
  C      5.516   -2.309   -1.970
  C      5.786   -3.855   -0.224
  C      2.921   -1.631   0.608
  C      4.040   -2.225   -0.090
  C      0.764   -0.484   1.955
  N      6.150   -3.348   -1.409
  O      -0.288   0.076   2.612
  H      1.904   -1.012   -1.199
  H      3.678   -2.112   2.578
  H      0.003   -0.001   -0.006
  H      1.772   -1.098   3.762
  H      3.931   -0.877   -1.782
  H      4.425   -3.721   1.429
  H      5.897   -1.982   -2.928
  H      6.368   -4.693   0.134
  H      6.938   -3.767   -1.902
  H      -0.027   0.924   3.005
  units Angstrom
}

dih_string = "3 11 13 23 255"
set optking fixed_dihedral = $dih_string

optimize('MP2/aug-cc-PVTZ')
--------------------------------------------------------------------------

    Molecular point group: c1
  Charge       = 1
  Multiplicity = 1
  Basis Set: AUG-CC-PVTZ
    Blend: AUG-CC-PVTZ
  Basis Set: (AUG-CC-PVTZ AUX)
    Blend: AUG-CC-PVTZ-JKFIT
  @DF-RHF Final Energy:  -551.67066259887156
    Total Energy =                       -551.6706625988715587
  Basis Set: (AUG-CC-PVTZ AUX)
    Blend: AUG-CC-PVTZ-RI
    Molecular point group: c1
  Basis Set: AUG-CC-PVTZ
    Blend: AUG-CC-PVTZ
  Basis Set: (AUG-CC-PVTZ AUX)
    Blend: AUG-CC-PVTZ-JKFIT
  Basis Set: (AUG-CC-PVTZ AUX)
    Blend: AUG-CC-PVTZ-JKFIT
	 Reference Energy          =    -551.6706625988715587 [Eh]
	 Singles Energy            =      -0.0000000000000001 [Eh]
	 Same-Spin Energy          =      -0.5961211836345373 [Eh]
	 Opposite-Spin Energy      =      -1.8246340548453850 [Eh]
	 Correlation Energy        =      -2.4207552384799222 [Eh]
	 Total Energy              =    -554.0914178373515142 [Eh]
	 SCS Total Energy          =    -554.0589305258974946 [Eh]
  @DF-RHF Final Energy:  -551.67543612264478
    Total Energy =                       -551.6754361226447827
  @DF-RHF Final Energy:  -551.67602728044380
    Total Energy =                       -551.6760272804438046
  @DF-RHF Final Energy:  -551.67594575371459
    Total Energy =                       -551.6759457537145863
  Charge       = 1
  Multiplicity = 1
  Basis Set: AUG-CC-PVTZ
    Blend: AUG-CC-PVTZ
  Basis Set: (AUG-CC-PVTZ AUX)
    Blend: AUG-CC-PVTZ-JKFIT

    Orbital Energies (a.u.)
    -----------------------

    Doubly Occupied:

       1A    -20.688384     2A    -15.831307     3A    -11.482235
       4A    -11.482194     5A    -11.451999     6A    -11.424970
       7A    -11.412320     8A    -11.412249     9A    -11.378608
      10A    -11.376610    11A    -11.375985    12A    -11.353895
      13A    -11.352320    14A     -1.509847    15A     -1.508736
      16A     -1.320609    17A     -1.267099    18A     -1.240422
      19A     -1.157165    20A     -1.154747    21A     -1.065181
      22A     -1.058467    23A     -0.971774    24A     -0.964291
      25A     -0.953456    26A     -0.867999    27A     -0.862634
      28A     -0.854718    29A     -0.819229    30A     -0.802963
      31A     -0.781067    32A     -0.770788    33A     -0.758615
      34A     -0.750017    35A     -0.725568    36A     -0.708524
      37A     -0.703700    38A     -0.661752    39A     -0.653958
      40A     -0.639000    41A     -0.592378    42A     -0.576545
      43A     -0.541137    44A     -0.471136    45A     -0.449802

  @DF-RHF Final Energy:  -551.67595372405003

   => Energetics <=

    Nuclear Repulsion Energy =            712.9719212210484329
    One-Electron Energy =               -2148.9229412250974747
    Two-Electron Energy =                 884.2750662799990096
    DFT Exchange-Correlation Energy =       0.0000000000000000
    Empirical Dispersion Energy =           0.0000000000000000
    PCM Polarization Energy =               0.0000000000000000
    EFP Energy =                            0.0000000000000000
    Total Energy =                       -551.6759537240500322
  Basis Set: (AUG-CC-PVTZ AUX)
    Blend: AUG-CC-PVTZ-RI
    Molecular point group: c1
  Basis Set: AUG-CC-PVTZ
    Blend: AUG-CC-PVTZ
  Basis Set: (AUG-CC-PVTZ AUX)
    Blend: AUG-CC-PVTZ-JKFIT
  Basis Set: (AUG-CC-PVTZ AUX)
    Blend: AUG-CC-PVTZ-JKFIT
	 Reference Energy          =    -551.6759537240500322 [Eh]
	 Singles Energy            =      -0.0000000000000001 [Eh]
	 Same-Spin Energy          =      -0.5953508315257537 [Eh]
	 Opposite-Spin Energy      =      -1.8229464293858832 [Eh]
	 Correlation Energy        =      -2.4182972609116371 [Eh]
	 Total Energy              =    -554.0942509849617181 [Eh]

	 ================> DF-SCS-MP2 Energies <==================
	-----------------------------------------------------------
	 SCS Same-Spin Scale       =       0.3333333333333333 [-]
	 SCS Opposite-Spin Scale   =       1.2000000000000000 [-]
	 SCS Same-Spin Energy      =      -0.1984502771752512 [Eh]
	 SCS Opposite-Spin Energy  =      -2.1875357152630599 [Eh]
	 SCS Correlation Energy    =      -2.3859859924383113 [Eh]
	 SCS Total Energy          =    -554.0619397164883821 [Eh]
	-----------------------------------------------------------

  -Total Gradient:
     Atom            X                  Y                   Z
    ------   -----------------  -----------------  -----------------
       1        0.000009955115    -0.000032923565    -0.000006660116
       2        0.000034005140     0.000014825718     0.000013678666
       3        0.000685418672     0.001454343247     0.000082769305
       4        0.000004408073    -0.000002049887    -0.000027391306
       5        0.000107324104    -0.000023872530    -0.000041039910
       6        0.000062957108    -0.000067920274    -0.000073612553
       7       -0.000049626667     0.000077230693    -0.000054493922
       8       -0.000022875937    -0.000035842428     0.000105250937
       9       -0.000093529323     0.000057036562     0.000027811160
      10       -0.000005505527     0.000006662460     0.000012070551
      11       -0.001034528548    -0.002028871997    -0.000616378555
      12       -0.000024193943     0.000011499435     0.000012708461
      13        0.000966326667    -0.000424642830     0.002337583124
      14        0.000011287974    -0.000014532132     0.000001947095
      15        0.000002561665    -0.000001443129    -0.000015999418
      16        0.000033726592    -0.000009469901     0.000018199821
      17        0.000000700710     0.000011666803    -0.000032140068
      18       -0.000031801539    -0.000006946930     0.000041996481
      19       -0.000030229069     0.000034212224    -0.000000417953
      20       -0.000000836098    -0.000011162448     0.000018704198
      21       -0.000005654029     0.000014010772    -0.000012920032
      22       -0.000024423714     0.000014812065     0.000015634331
      23       -0.000595467439     0.000963378084    -0.001807300295

  **** Optimization is complete! (in 5 steps) ****
    Final optimized geometry and variables:
    Molecular point group: c1

    Geometry (in Angstrom), charge = 1, multiplicity = 1:

    C           -1.269295293066     0.752073390421    -0.557568758340
    C           -0.293174794682     0.106611494124     1.548470036921
    C           -2.337670624528     1.317380093213     0.111392765899
    C           -1.356931693374     0.680578275170     2.217288417125
    C            1.299297812090     0.003577994802    -1.799213626546
    C            1.581669359012    -1.552415871700    -0.009902183742
    C            2.353743731991    -0.582113179628    -2.453332612179
    C            2.633245042304    -2.116059781424    -0.687685700591
    C           -0.234327856511     0.136489181556     0.152125245508
    C            0.878682712177    -0.467907947961    -0.549353517687
    C           -2.383071204315     1.287237437592     1.500437335705
    N            2.988852104353    -1.619458671021    -1.883793552097
    O           -3.473570079280     1.798776203818     2.141893212083
    H           -1.266809340325     0.754093405463    -1.637230727187
    H            0.510227111914    -0.332095876717     2.120977674192
    H           -3.153619570477     1.772923507855    -0.427049453103
    H           -1.406522097389     0.663555455659     3.294875815865
    H            0.820408091239     0.853393498696    -2.256873570239
    H            1.290172723248    -1.983556642872     0.933552215624
    H            2.720880581706    -0.251132213496    -3.410441198507
    H            3.198352008141    -2.956575946879    -0.320812753599
    H            3.765101327402    -2.043644612299    -2.375182362760
    H           -3.263016335665     2.650581222259     2.537850167559

*** Psi4 exiting successfully. Buy a developer a beer!
