                               Psi4 1.1 release

  ==> Input File <==

--------------------------------------------------------------------------

memory 5 Gb

molecule phepyrOH_anion {
  symmetry C1
  -1 1
  C      1.885   -1.036   -0.112
  C      2.878   -1.652   2.002
  C      0.807   -0.463   0.561
  C      1.800   -1.079   2.676
  C      4.518   -3.474   0.293
  C      4.640   -1.552   -1.148
  C      5.591   -4.000   -0.408
  C      5.707   -2.165   -1.785
  C      2.921   -1.631   0.608
  C      4.040   -2.226   -0.090
  C      0.764   -0.484   1.955
  N      6.200   -3.376   -1.441
  O      -0.227   0.042   2.574
  H      1.904   -1.011   -1.199
  H      3.678   -2.112   2.577
  H      0.011   -0.006   -0.025
  H      1.791   -1.108   3.764
  H      4.076   -4.030   1.113
  H      4.294   -0.577   -1.475
  H      6.001   -4.971   -0.149
  H      6.210   -1.681   -2.616
  units Angstrom
}

dih_string = "1 9 10 5 225"
set optking fixed_dihedral = $dih_string

optimize('MP2/aug-cc-PVTZ')
--------------------------------------------------------------------------

    Molecular point group: c1
  Charge       = -1
  Multiplicity = 1
  Basis Set: AUG-CC-PVTZ
    Blend: AUG-CC-PVTZ
  Basis Set: (AUG-CC-PVTZ AUX)
    Blend: AUG-CC-PVTZ-JKFIT
  @DF-RHF Final Energy:  -550.71502562183696
    Total Energy =                       -550.7150256218369577
  Basis Set: (AUG-CC-PVTZ AUX)
    Blend: AUG-CC-PVTZ-RI
    Molecular point group: c1
  Basis Set: AUG-CC-PVTZ
    Blend: AUG-CC-PVTZ
  Basis Set: (AUG-CC-PVTZ AUX)
    Blend: AUG-CC-PVTZ-JKFIT
  Basis Set: (AUG-CC-PVTZ AUX)
    Blend: AUG-CC-PVTZ-JKFIT
	 Reference Energy          =    -550.7150256218369577 [Eh]
	 Singles Energy            =      -0.0000000000000001 [Eh]
	 Same-Spin Energy          =      -0.6137450790137782 [Eh]
	 Opposite-Spin Energy      =      -1.8379786341963338 [Eh]
	 Correlation Energy        =      -2.4517237132101117 [Eh]
	 Total Energy              =    -553.1667493350470295 [Eh]
	 SCS Total Energy          =    -553.1251816758771156 [Eh]
  @DF-RHF Final Energy:  -550.72164511221081
    Total Energy =                       -550.7216451122108083
  @DF-RHF Final Energy:  -550.72572923577923
    Total Energy =                       -550.7257292357792267
  @DF-RHF Final Energy:  -550.72726530012551
    Total Energy =                       -550.7272653001255094
  @DF-RHF Final Energy:  -550.72756858136108
    Total Energy =                       -550.7275685813610835
  @DF-RHF Final Energy:  -550.72766203629317
    Total Energy =                       -550.7276620362931681
  @DF-RHF Final Energy:  -550.72768519523845
    Total Energy =                       -550.7276851952384504
  @DF-RHF Final Energy:  -550.72769135236319
    Total Energy =                       -550.7276913523631947
  @DF-RHF Final Energy:  -550.72768128762993
    Total Energy =                       -550.7276812876299346
  @DF-RHF Final Energy:  -550.72767618987177
    Total Energy =                       -550.7276761898717723
  @DF-RHF Final Energy:  -550.72767050743334
    Total Energy =                       -550.7276705074333449
  Charge       = -1
  Multiplicity = 1
  Basis Set: AUG-CC-PVTZ
    Blend: AUG-CC-PVTZ
  Basis Set: (AUG-CC-PVTZ AUX)
    Blend: AUG-CC-PVTZ-JKFIT

    Orbital Energies (a.u.)
    -----------------------

    Doubly Occupied:

       1A    -20.316768     2A    -15.448162     3A    -11.163886
       4A    -11.163840     5A    -11.146001     6A    -11.131293
       7A    -11.117124     8A    -11.116896     9A    -11.100328
      10A    -11.099690    11A    -11.075749    12A    -11.061629
      13A    -11.061200    14A     -1.147466    15A     -1.144921
      16A     -1.016947    17A     -0.957770    18A     -0.920442
      19A     -0.866948    20A     -0.838146    21A     -0.744216
      22A     -0.734838    23A     -0.674928    24A     -0.650406
      25A     -0.596099    26A     -0.551303    27A     -0.538817
      28A     -0.511710    29A     -0.487382    30A     -0.482303
      31A     -0.481296    32A     -0.437282    33A     -0.431361
      34A     -0.420070    35A     -0.401107    36A     -0.378937
      37A     -0.373409    38A     -0.348283    39A     -0.312691
      40A     -0.309948    41A     -0.250954    42A     -0.239818
      43A     -0.223624    44A     -0.201208    45A     -0.107809

  @DF-RHF Final Energy:  -550.72767249276217

   => Energetics <=

    Nuclear Repulsion Energy =            682.5182025709078744
    One-Electron Energy =               -2114.9217392304608438
    Two-Electron Energy =                 881.6758641667909160
    DFT Exchange-Correlation Energy =       0.0000000000000000
    Empirical Dispersion Energy =           0.0000000000000000
    PCM Polarization Energy =               0.0000000000000000
    EFP Energy =                            0.0000000000000000
    Total Energy =                       -550.7276724927621672
  Basis Set: (AUG-CC-PVTZ AUX)
    Blend: AUG-CC-PVTZ-RI
    Molecular point group: c1
  Basis Set: AUG-CC-PVTZ
    Blend: AUG-CC-PVTZ
  Basis Set: (AUG-CC-PVTZ AUX)
    Blend: AUG-CC-PVTZ-JKFIT
  Basis Set: (AUG-CC-PVTZ AUX)
    Blend: AUG-CC-PVTZ-JKFIT
	 Reference Energy          =    -550.7276724927621672 [Eh]
	 Singles Energy            =      -0.0000000000000002 [Eh]
	 Same-Spin Energy          =      -0.6125131092316075 [Eh]
	 Opposite-Spin Energy      =      -1.8365336058873074 [Eh]
	 Correlation Energy        =      -2.4490467151189148 [Eh]
	 Total Energy              =    -553.1767192078810922 [Eh]

	 ================> DF-SCS-MP2 Energies <==================
	-----------------------------------------------------------
	 SCS Same-Spin Scale       =       0.3333333333333333 [-]
	 SCS Opposite-Spin Scale   =       1.2000000000000000 [-]
	 SCS Same-Spin Energy      =      -0.2041710364105358 [Eh]
	 SCS Opposite-Spin Energy  =      -2.2038403270647686 [Eh]
	 SCS Correlation Energy    =      -2.4080113634753046 [Eh]
	 SCS Total Energy          =    -553.1356838562375060 [Eh]
	-----------------------------------------------------------

  -Total Gradient:
     Atom            X                  Y                   Z
    ------   -----------------  -----------------  -----------------
       1       -0.002492954544    -0.004350813717    -0.000080181282
       2        0.000011031395     0.000022346449    -0.000015427689
       3       -0.000014144574     0.000000349323     0.000010741574
       4       -0.000016136434    -0.000009920860     0.000009360187
       5       -0.003279981758    -0.002282085247    -0.003225260286
       6       -0.000008348397    -0.000011500613     0.000001141761
       7        0.000027679322     0.000029296596     0.000031578974
       8       -0.000039065449    -0.000013385824    -0.000028693257
       9        0.002039162215     0.005380643021    -0.001539160214
      10        0.003742890408     0.001250763300     0.004855861407
      11        0.000033610361    -0.000000551412    -0.000021755371
      12       -0.000008967603    -0.000009219059     0.000004789641
      13       -0.000005543934     0.000001230902     0.000000842656
      14       -0.000004254244     0.000002508317     0.000003380496
      15        0.000001503095     0.000007675111     0.000003720807
      16        0.000000459221    -0.000009646716    -0.000001408663
      17        0.000001063152    -0.000007800957    -0.000013096665
      18        0.000001580530    -0.000006895108    -0.000009219764
      19        0.000009673367     0.000005418768     0.000001938788
      20       -0.000008410664    -0.000005402116    -0.000008358215
      21        0.000009154527     0.000006989846     0.000019205118

  **** Optimization is complete! (in 12 steps) ****
    Final optimized geometry and variables:
    Molecular point group: c1

    Geometry (in Angstrom), charge = -1, multiplicity = 1:

    C           -1.221030160306     0.830774659131    -0.526000211892
    C           -0.325305686660     0.105762425620     1.566707747866
    C           -2.331369522256     1.332492882484     0.116590984612
    C           -1.419996901534     0.623330755747     2.222987932333
    C            1.442629540913    -1.654429915903    -0.149400892428
    C            1.512865865735     0.159205825062    -1.657503548562
    C            2.472335567975    -2.231550992806    -0.871049491523
    C            2.529539151770    -0.498329666030    -2.326546048004
    C           -0.173068409634     0.216227937637     0.176245037294
    C            0.931824502562    -0.402414737266    -0.513840908341
    C           -2.502320379167     1.275748032402     1.541005636203
    N            3.032089312855    -1.683467770386    -1.957251749168
    O           -3.511948982972     1.747699849614     2.137060520206
    H           -1.167689911861     0.881480775176    -1.607401027041
    H            0.462549320930    -0.365535982957     2.143277410515
    H           -3.132917468331     1.780220904229    -0.455698015920
    H           -1.491419606032     0.552286677063     3.300186337359
    H            1.018170139040    -2.179248456422     0.693792150745
    H            1.177856609382     1.125108014899    -2.006664802993
    H            2.858360638280    -3.199087348766    -0.575349510213
    H            2.975469981937    -0.046262737895    -3.203664149638

*** Psi4 exiting successfully. Buy a developer a beer!
