                              Psi4 1.0.0 Driver

  ==> Input File <==

--------------------------------------------------------------------------

memory 1000 mb

molecule butane {
  symmetry C1
  0 1
  H      1.604   0.760   -8.260
  H      1.745   2.388   -8.880
  H      2.043   1.024   -9.930
  C      2.142   1.395   -8.932
  H      4.169   2.051   -9.210
  H      3.731   1.788   -7.539
  C      3.631   1.416   -8.537
  H      4.882   -0.081   -9.436
  H      4.721   -0.237   -7.703
  C      4.203   -0.012   -8.612
  H      3.451   -2.008   -8.862
  H      2.535   -0.792   -9.718
  H      2.373   -0.948   -7.986
  C      3.053   -1.016   -8.809
  units Angstrom
}

dih_string = "4 7 10 14 350"
set optking fixed_dihedral = $dih_string

optimize('MP2/6-31G(d)')
--------------------------------------------------------------------------

    Molecular point group: c1
  Charge       = 0
  Multiplicity = 1
  Basis Set: 6-31G(D)
  Basis Set:
  @DF-RHF Final Energy:  -157.27305217277038
    Total Energy =                       -157.2730521727702921
  Basis Set:
    Molecular point group: c1
  Basis Set: 6-31G(D)
  Basis Set:
  Basis Set:
	 Reference Energy          =    -157.2730521727703774 [Eh]
	 Singles Energy            =      -0.0000000000000000 [Eh]
	 Same-Spin Energy          =      -0.1253981088024570 [Eh]
	 Opposite-Spin Energy      =      -0.4216734103678728 [Eh]
	 Correlation Energy        =      -0.5470715191703298 [Eh]
	 Total Energy              =    -157.8201236919406938 [Eh]
	 SCS Total Energy          =    -157.8208596348126491 [Eh]
  Basis Set: 6-31G(D)
  Basis Set:
  @DF-RHF Final Energy:  -157.28344294422868
    Total Energy =                       -157.2834429442287956
  Basis Set:
  Basis Set: 6-31G(D)
  Basis Set:
  @DF-RHF Final Energy:  -157.28659994385723
    Total Energy =                       -157.2865999438571976
  @DF-RHF Final Energy:  -157.28795700571720
    Total Energy =                       -157.2879570057173453
  @DF-RHF Final Energy:  -157.28852543421448
    Total Energy =                       -157.2885254342144492
  @DF-RHF Final Energy:  -157.28858276319110
    Total Energy =                       -157.2885827631909592
  @DF-RHF Final Energy:  -157.28859569108198
    Total Energy =                       -157.2885956910820369
  @DF-RHF Final Energy:  -157.28865006272835
    Total Energy =                       -157.2886500627283226
  @DF-RHF Final Energy:  -157.28854660685818
    Total Energy =                       -157.2885466068581763
  @DF-RHF Final Energy:  -157.28857604454478
    Total Energy =                       -157.2885760445448113
	 Singles Energy            =      -0.0000000000000000 [Eh]
	 Same-Spin Energy          =      -0.1242938339331467 [Eh]
	 Opposite-Spin Energy      =      -0.4226414552229054 [Eh]
	 Correlation Energy        =      -0.5469352891560521 [Eh]
	 Total Energy              =    -157.8355113337008220 [Eh]
	 SCS Total Energy          =    -157.8371770687899982 [Eh]
  Charge       = 0
  Multiplicity = 1
  Basis Set: 6-31G(D)
  Basis Set:

    Orbital Energies (a.u.)
    -----------------------

    Doubly Occupied:

       1A    -11.216288     2A    -11.215753     3A    -11.209586
       4A    -11.209574     5A     -1.065304     6A     -0.974146
       7A     -0.876593     8A     -0.767559     9A     -0.632853
      10A     -0.613047    11A     -0.564454    12A     -0.537945
      13A     -0.524093    14A     -0.511132    15A     -0.462772
      16A     -0.457312    17A     -0.443648

  @DF-RHF Final Energy:  -157.28859102653334

   => Energetics <=

    Nuclear Repulsion Energy =            132.7209506641143264
    One-Electron Energy =                -473.4549618391794752
    Two-Electron Energy =                 183.4454201485316389
    DFT Exchange-Correlation Energy =       0.0000000000000000
    Empirical Dispersion Energy =           0.0000000000000000
    PCM Polarization Energy =               0.0000000000000000
    EFP Energy =                            0.0000000000000000
    Total Energy =                       -157.2885910265334815
  Basis Set:
    Molecular point group: c1
  Basis Set: 6-31G(D)
  Basis Set:
  Basis Set:
	 Reference Energy          =    -157.2885910265333393 [Eh]
	 Singles Energy            =      -0.0000000000000000 [Eh]
	 Same-Spin Energy          =      -0.1242893419625071 [Eh]
	 Opposite-Spin Energy      =      -0.4226374231777048 [Eh]
	 Correlation Energy        =      -0.5469267651402119 [Eh]
	 Total Energy              =    -157.8355177916735386 [Eh]

	 ================> DF-SCS-MP2 Energies <==================
	-----------------------------------------------------------
	 SCS Same-Spin Scale       =       0.3333333333333333 [-]
	 SCS Opposite-Spin Scale   =       1.2000000000000000 [-]
	 SCS Same-Spin Energy      =      -0.0414297806541690 [Eh]
	 SCS Opposite-Spin Energy  =      -0.5071649078132456 [Eh]
	 SCS Correlation Energy    =      -0.5485946884674147 [Eh]
	 SCS Total Energy          =    -157.8371857150007429 [Eh]
	-----------------------------------------------------------

  -Total Gradient:
     Atom            X                  Y                   Z
    ------   -----------------  -----------------  -----------------
       1       -0.000041456599    -0.000013681868     0.000005152286
       2       -0.000022319905     0.000010591039     0.000001850630
       3       -0.000003620070    -0.000001473681    -0.000005877345
       4       -0.000470372358    -0.000343893603     0.002774810873
       5        0.000003036607     0.000019445911    -0.000001504754
       6        0.000022987092     0.000010706420    -0.000033906717
       7        0.000807416235     0.000500599539    -0.005184649801
       8        0.000014617287     0.000003968117     0.000039831318
       9        0.000014798802    -0.000013630762     0.000003788241
      10       -0.000427983339    -0.000348759438     0.005241698766
      11       -0.000007054305    -0.000021678883    -0.000006383128
      12       -0.000037510546    -0.000014991223    -0.000017583677
      13       -0.000003514790    -0.000003778077     0.000004063343
      14        0.000150975890     0.000216576511    -0.002821290034

  **** Optimization is complete! (in 11 steps) ****
    Final optimized geometry and variables:
    Molecular point group: c1

    Geometry (in Angstrom), charge = 0, multiplicity = 1:

    H           -1.739020862535     0.540779410485     0.537747944237
    H           -1.438570567256     2.159812077193    -0.095093581056
    H           -1.388012472157     0.769756507514    -1.178776270348
    C           -1.135658276701     1.111616264488    -0.171272228937
    H            0.914059896464     1.613262425688    -0.574141903527
    H            0.538041816512     1.399307261637     1.115455746246
    C            0.357530809160     0.976276822299     0.120877393785
    H            1.602037755230    -0.545899769095    -0.791977599098
    H            1.574553174317    -0.620899428142     0.950296426336
    C            0.937221723459    -0.459968505346     0.074832834275
    H            0.437323961641    -2.559067529445    -0.056426999190
    H           -0.701453859813    -1.513817285981    -0.906536023287
    H           -0.742806850205    -1.619622251903     0.856755162999
    C           -0.079824785191    -1.596313428543    -0.012453523619

*** Psi4 exiting successfully. Buy a developer a beer!
