                               Psi4 1.1 release

  ==> Input File <==

--------------------------------------------------------------------------

memory 5 Gb

molecule phepyrOH_cation {
  symmetry C1
  1 1
  C      1.885   -1.036   -0.112
  C      2.878   -1.652   2.002
  C      0.807   -0.463   0.561
  C      1.800   -1.079   2.676
  C      4.440   -1.719   -1.322
  C      4.716   -3.305   0.469
  C      5.516   -2.309   -1.970
  C      5.786   -3.855   -0.224
  C      2.921   -1.631   0.608
  C      4.040   -2.225   -0.090
  C      0.764   -0.484   1.955
  N      6.150   -3.348   -1.409
  O      -0.288   0.076   2.612
  H      1.904   -1.012   -1.199
  H      3.678   -2.112   2.578
  H      0.003   -0.001   -0.006
  H      1.772   -1.098   3.762
  H      3.931   -0.877   -1.782
  H      4.425   -3.721   1.429
  H      5.897   -1.982   -2.928
  H      6.368   -4.693   0.134
  H      6.938   -3.767   -1.902
  H      0.027   0.613   3.356
  units Angstrom
}

dih_string = "3 11 13 23 225"
set optking fixed_dihedral = $dih_string

optimize('MP2/aug-cc-PVTZ')
--------------------------------------------------------------------------

    Molecular point group: c1
  Charge       = 1
  Multiplicity = 1
  Basis Set: AUG-CC-PVTZ
    Blend: AUG-CC-PVTZ
  Basis Set: (AUG-CC-PVTZ AUX)
    Blend: AUG-CC-PVTZ-JKFIT
  @DF-RHF Final Energy:  -551.67316018496183
    Total Energy =                       -551.6731601849618301
  Basis Set: (AUG-CC-PVTZ AUX)
    Blend: AUG-CC-PVTZ-RI
    Molecular point group: c1
  Basis Set: AUG-CC-PVTZ
    Blend: AUG-CC-PVTZ
  Basis Set: (AUG-CC-PVTZ AUX)
    Blend: AUG-CC-PVTZ-JKFIT
  Basis Set: (AUG-CC-PVTZ AUX)
    Blend: AUG-CC-PVTZ-JKFIT
	 Reference Energy          =    -551.6731601849618301 [Eh]
	 Singles Energy            =      -0.0000000000000002 [Eh]
	 Same-Spin Energy          =      -0.5964090751738018 [Eh]
	 Opposite-Spin Energy      =      -1.8250231520795950 [Eh]
	 Correlation Energy        =      -2.4214322272533972 [Eh]
	 Total Energy              =    -554.0945924122152064 [Eh]
	 SCS Total Energy          =    -554.0619909925152342 [Eh]
  @DF-RHF Final Energy:  -551.67828936182286
    Total Energy =                       -551.6782893618228627
  @DF-RHF Final Energy:  -551.67913203524608
    Total Energy =                       -551.6791320352460843
  @DF-RHF Final Energy:  -551.67907620201822
    Total Energy =                       -551.6790762020182228
  @DF-RHF Final Energy:  -551.67907326872592
    Total Energy =                       -551.6790732687259151
  @DF-RHF Final Energy:  -551.67907927640408
    Total Energy =                       -551.6790792764040816
  @DF-RHF Final Energy:  -551.67907428417232
    Total Energy =                       -551.6790742841723159
  @DF-RHF Final Energy:  -551.67907674276273
    Total Energy =                       -551.6790767427627316
  @DF-RHF Final Energy:  -551.67896790218845
    Total Energy =                       -551.6789679021884467
  @DF-RHF Final Energy:  -551.67897413069727
    Total Energy =                       -551.6789741306972701
  @DF-RHF Final Energy:  -551.67910116294684
    Total Energy =                       -551.6791011629468358
  Charge       = 1
  Multiplicity = 1
  Basis Set: AUG-CC-PVTZ
    Blend: AUG-CC-PVTZ
  Basis Set: (AUG-CC-PVTZ AUX)
    Blend: AUG-CC-PVTZ-JKFIT

    Orbital Energies (a.u.)
    -----------------------

    Doubly Occupied:

       1A    -20.698015     2A    -15.828721     3A    -11.480347
       4A    -11.480270     5A    -11.450704     6A    -11.430573
       7A    -11.410335     8A    -11.410254     9A    -11.378962
      10A    -11.376984    11A    -11.375352    12A    -11.355194
      13A    -11.350500    14A     -1.520031    15A     -1.507569
      16A     -1.319478    17A     -1.266878    18A     -1.238472
      19A     -1.157273    20A     -1.155808    21A     -1.063336
      22A     -1.058047    23A     -0.975426    24A     -0.962562
      25A     -0.954062    26A     -0.870082    27A     -0.862432
      28A     -0.855892    29A     -0.819816    30A     -0.801115
      31A     -0.781605    32A     -0.771180    33A     -0.758580
      34A     -0.743394    35A     -0.725265    36A     -0.711016
      37A     -0.702478    38A     -0.669698    39A     -0.659944
      40A     -0.636869    41A     -0.609220    42A     -0.571686
      43A     -0.539745    44A     -0.472867    45A     -0.442958

  @DF-RHF Final Energy:  -551.67905016695283

   => Energetics <=

    Nuclear Repulsion Energy =            713.2601876564615395
    One-Electron Energy =               -2149.4564879666654633
    Two-Electron Energy =                 884.5172501432510899
    DFT Exchange-Correlation Energy =       0.0000000000000000
    Empirical Dispersion Energy =           0.0000000000000000
    PCM Polarization Energy =               0.0000000000000000
    EFP Energy =                            0.0000000000000000
    Total Energy =                       -551.6790501669528339
  Basis Set: (AUG-CC-PVTZ AUX)
    Blend: AUG-CC-PVTZ-RI
    Molecular point group: c1
  Basis Set: AUG-CC-PVTZ
    Blend: AUG-CC-PVTZ
  Basis Set: (AUG-CC-PVTZ AUX)
    Blend: AUG-CC-PVTZ-JKFIT
  Basis Set: (AUG-CC-PVTZ AUX)
    Blend: AUG-CC-PVTZ-JKFIT
	 Reference Energy          =    -551.6790501669528339 [Eh]
	 Singles Energy            =      -0.0000000000000001 [Eh]
	 Same-Spin Energy          =      -0.5955793923175365 [Eh]
	 Opposite-Spin Energy      =      -1.8231075619856831 [Eh]
	 Correlation Energy        =      -2.4186869543032197 [Eh]
	 Total Energy              =    -554.0977371212560456 [Eh]

	 ================> DF-SCS-MP2 Energies <==================
	-----------------------------------------------------------
	 SCS Same-Spin Scale       =       0.3333333333333333 [-]
	 SCS Opposite-Spin Scale   =       1.2000000000000000 [-]
	 SCS Same-Spin Energy      =      -0.1985264641058455 [Eh]
	 SCS Opposite-Spin Energy  =      -2.1877290743828195 [Eh]
	 SCS Correlation Energy    =      -2.3862555384886650 [Eh]
	 SCS Total Energy          =    -554.0653057054414603 [Eh]
	-----------------------------------------------------------

  -Total Gradient:
     Atom            X                  Y                   Z
    ------   -----------------  -----------------  -----------------
       1        0.000049714182    -0.000027541037    -0.000004583852
       2        0.000014130402     0.000005711517     0.000041784568
       3        0.001636451464     0.003303320711     0.000264330411
       4        0.000060859350    -0.000012235040    -0.000031052075
       5        0.000077482345    -0.000011420494    -0.000058534086
       6        0.000052400570    -0.000061518556    -0.000045603702
       7       -0.000040232126     0.000073967307    -0.000075191408
       8        0.000010202446    -0.000041886100     0.000106026189
       9       -0.000093931961     0.000052914414     0.000015877010
      10       -0.000001670332     0.000002248017     0.000015375824
      11       -0.002419229954    -0.003863008848    -0.001051197324
      12       -0.000012296847    -0.000003885737     0.000002711777
      13        0.000378436940    -0.003429777363     0.003732577370
      14        0.000013344295    -0.000007902298    -0.000004599458
      15        0.000017889417    -0.000006612017    -0.000013051919
      16        0.000018170584    -0.000032949010    -0.000007214774
      17       -0.000007376668    -0.000002710578    -0.000015749532
      18       -0.000028755414     0.000002228513     0.000030285598
      19       -0.000027399529     0.000026932062     0.000009936935
      20        0.000000492042     0.000003504040     0.000006099933
      21       -0.000006014180    -0.000002253417    -0.000001953637
      22       -0.000024059095     0.000012601265     0.000014971737
      23        0.000331392066     0.004020272658    -0.002931245584

  **** Optimization is complete! (in 12 steps) ****
    Final optimized geometry and variables:
    Molecular point group: c1

    Geometry (in Angstrom), charge = 1, multiplicity = 1:

    C           -1.276982748244     0.756457435671    -0.534927840427
    C           -0.290052663895     0.075054623742     1.552263875517
    C           -2.341305817356     1.309050382802     0.147115245429
    C           -1.352759712068     0.629812077215     2.236906009114
    C            1.273338789065     0.022670035869    -1.815866254218
    C            1.606658337054    -1.528933624702    -0.032111885403
    C            2.328680240161    -0.544070792634    -2.484186527255
    C            2.658375577414    -2.073617246557    -0.724131449010
    C           -0.235921491809     0.128094762655     0.156160043853
    C            0.876290676624    -0.455830577776    -0.560004173223
    C           -2.388606646018     1.241843879517     1.535964035046
    N            2.990008904512    -1.570892263966    -1.924848639306
    O           -3.468824648206     1.774243990924     2.155337293654
    H           -1.277370321080     0.788653966798    -1.613925230601
    H            0.517141217940    -0.368413207120     2.115507403410
    H           -3.154217141559     1.785417932139    -0.377586989144
    H           -1.387941814465     0.588476703766     3.315030628488
    H            0.775358002131     0.864328097397    -2.267934595567
    H            1.336566738684    -1.967089701411     0.914392293410
    H            2.676761913729    -0.205419222376    -3.445759732868
    H            3.242195132290    -2.904659510957    -0.365023165869
    H            3.766584357042    -1.981281370370    -2.426962550131
    H           -3.199204776734     2.300656609418     2.915131526810

*** Psi4 exiting successfully. Buy a developer a beer!
