                               Psi4 1.1 release

  ==> Input File <==

--------------------------------------------------------------------------

memory 5 Gb

molecule phepyrFOH_cation {
  symmetry C1
  1 1
  C      1.885   -1.036   -0.112
  C      0.807   -0.463   0.561
  C      5.008   -1.412   -0.673
  C      4.143   -3.609   -0.194
  C      1.800   -1.079   2.676
  C      6.068   -2.009   -1.341
  C      5.224   -4.150   -0.874
  C      2.921   -1.631   0.608
  C      4.038   -2.225   -0.095
  C      0.764   -0.484   1.955
  C      2.878   -1.652   2.002
  N      6.144   -3.345   -1.422
  O      -0.289   0.076   2.612
  F      3.866   -2.220   2.709
  H      1.904   -1.012   -1.199
  H      0.002   -0.002   -0.006
  H      4.952   -0.330   -0.611
  H      3.400   -4.267   0.247
  H      1.772   -1.099   3.762
  H      6.866   -1.458   -1.819
  H      5.387   -5.212   -1.001
  H      6.930   -3.763   -1.918
  H      -0.175   -0.018   3.571
  units Angstrom
}

dih_string = "1 8 9 3 75"
set optking fixed_dihedral = $dih_string

optimize('MP2/aug-cc-PVTZ')
--------------------------------------------------------------------------

    Molecular point group: c1
  Charge       = 1
  Multiplicity = 1
  Basis Set: AUG-CC-PVTZ
    Blend: AUG-CC-PVTZ
  Basis Set: (AUG-CC-PVTZ AUX)
    Blend: AUG-CC-PVTZ-JKFIT
  @DF-RHF Final Energy:  -650.55699598877777
    Total Energy =                       -650.5569959887777713
  Basis Set: (AUG-CC-PVTZ AUX)
    Blend: AUG-CC-PVTZ-RI
    Molecular point group: c1
  Basis Set: AUG-CC-PVTZ
    Blend: AUG-CC-PVTZ
  Basis Set: (AUG-CC-PVTZ AUX)
    Blend: AUG-CC-PVTZ-JKFIT
  Basis Set: (AUG-CC-PVTZ AUX)
    Blend: AUG-CC-PVTZ-JKFIT
	 Reference Energy          =    -650.5569959887777713 [Eh]
	 Singles Energy            =      -0.0000000000000001 [Eh]
	 Same-Spin Energy          =      -0.6688472437892737 [Eh]
	 Opposite-Spin Energy      =      -2.0140007260015849 [Eh]
	 Correlation Energy        =      -2.6828479697908585 [Eh]
	 Total Energy              =    -653.2398439585685992 [Eh]
	 SCS Total Energy          =    -653.1967459412427388 [Eh]
  @DF-RHF Final Energy:  -650.56249467061889
    Total Energy =                       -650.5624946706188894
  @DF-RHF Final Energy:  -650.56375158414301
    Total Energy =                       -650.5637515841431195
  @DF-RHF Final Energy:  -650.56374366834302
    Total Energy =                       -650.5637436683430224
  @DF-RHF Final Energy:  -650.56365810803629
    Total Energy =                       -650.5636581080364067
  @DF-RHF Final Energy:  -650.56364955161007
    Total Energy =                       -650.5636495516100695
  @DF-RHF Final Energy:  -650.56363529242890
    Total Energy =                       -650.5636352924288985
  @DF-RHF Final Energy:  -650.56368828456573
    Total Energy =                       -650.5636882845658420
  @DF-RHF Final Energy:  -650.56372313771328
    Total Energy =                       -650.5637231377131684
  @DF-RHF Final Energy:  -650.56294568143062
    Total Energy =                       -650.5629456814306195
  @DF-RHF Final Energy:  -650.56359524051777
    Total Energy =                       -650.5635952405177704
  @DF-RHF Final Energy:  -650.56357461121695
    Total Energy =                       -650.5635746112170636
  @DF-RHF Final Energy:  -650.56354601357168
    Total Energy =                       -650.5635460135717949
  @DF-RHF Final Energy:  -650.56354242821669
    Total Energy =                       -650.5635424282165786
  @DF-RHF Final Energy:  -650.56354411390589
    Total Energy =                       -650.5635441139058912
  @DF-RHF Final Energy:  -650.56353299962643
    Total Energy =                       -650.5635329996264318
  @DF-RHF Final Energy:  -650.56356971928528
    Total Energy =                       -650.5635697192853968
  Charge       = 1
  Multiplicity = 1
  Basis Set: AUG-CC-PVTZ
    Blend: AUG-CC-PVTZ
  Basis Set: (AUG-CC-PVTZ AUX)
    Blend: AUG-CC-PVTZ-JKFIT

    Orbital Energies (a.u.)
    -----------------------

    Doubly Occupied:

       1A    -26.438124     2A    -20.705903     3A    -15.843345
       4A    -11.489108     5A    -11.487725     6A    -11.463020
       7A    -11.455169     8A    -11.435004     9A    -11.419649
      10A    -11.418840    11A    -11.379259    12A    -11.374784
      13A    -11.356519    14A    -11.346240    15A     -1.756670
      16A     -1.528678    17A     -1.518776    18A     -1.323098
      19A     -1.274410    20A     -1.246657    21A     -1.165589
      22A     -1.153068    23A     -1.071028    24A     -1.065098
      25A     -0.992600    26A     -0.971023    27A     -0.962783
      28A     -0.889829    29A     -0.875763    30A     -0.862857
      31A     -0.854524    32A     -0.825249    33A     -0.820154
      34A     -0.806329    35A     -0.802211    36A     -0.780447
      37A     -0.757845    38A     -0.748115    39A     -0.729907
      40A     -0.714721    41A     -0.709094    42A     -0.689055
      43A     -0.659824    44A     -0.642478    45A     -0.615471
      46A     -0.578877    47A     -0.543321    48A     -0.472365
      49A     -0.444782

  @DF-RHF Final Energy:  -650.56357747603954

   => Energetics <=

    Nuclear Repulsion Energy =            831.4550491170525675
    One-Electron Energy =               -2523.1064832474066861
    Two-Electron Energy =                1041.0878566543144643
    DFT Exchange-Correlation Energy =       0.0000000000000000
    Empirical Dispersion Energy =           0.0000000000000000
    PCM Polarization Energy =               0.0000000000000000
    EFP Energy =                            0.0000000000000000
    Total Energy =                       -650.5635774760396544
  Basis Set: (AUG-CC-PVTZ AUX)
    Blend: AUG-CC-PVTZ-RI
    Molecular point group: c1
  Basis Set: AUG-CC-PVTZ
    Blend: AUG-CC-PVTZ
  Basis Set: (AUG-CC-PVTZ AUX)
    Blend: AUG-CC-PVTZ-JKFIT
  Basis Set: (AUG-CC-PVTZ AUX)
    Blend: AUG-CC-PVTZ-JKFIT
	 Reference Energy          =    -650.5635774760395407 [Eh]
	 Singles Energy            =      -0.0000000000000001 [Eh]
	 Same-Spin Energy          =      -0.6683076515548985 [Eh]
	 Opposite-Spin Energy      =      -2.0120335377480099 [Eh]
	 Correlation Energy        =      -2.6803411893029083 [Eh]
	 Total Energy              =    -653.2439186653424485 [Eh]

	 ================> DF-SCS-MP2 Energies <==================
	-----------------------------------------------------------
	 SCS Same-Spin Scale       =       0.3333333333333333 [-]
	 SCS Opposite-Spin Scale   =       1.2000000000000000 [-]
	 SCS Same-Spin Energy      =      -0.2227692171849661 [Eh]
	 SCS Opposite-Spin Energy  =      -2.4144402452976119 [Eh]
	 SCS Correlation Energy    =      -2.6372094624825779 [Eh]
	 SCS Total Energy          =    -653.2007869385221284 [Eh]
	-----------------------------------------------------------

  -Total Gradient:
     Atom            X                  Y                   Z
    ------   -----------------  -----------------  -----------------
       1       -0.002511471573    -0.004242198230     0.000132607078
       2       -0.000075945544    -0.000028223570     0.000063086577
       3        0.002655022543    -0.000209410615     0.003965865972
       4        0.000065596940     0.000050600722    -0.000096179701
       5       -0.000009835225    -0.000077936228    -0.000023200289
       6        0.000001517644     0.000013837437    -0.000007859035
       7        0.000002001957    -0.000008630198     0.000008641253
       8        0.005017216588     0.006195913062     0.001863396826
       9       -0.005061348872    -0.001931719742    -0.005834180018
      10        0.000115816242     0.000149171706    -0.000037701138
      11       -0.000056590129     0.000117002002     0.000079022479
      12       -0.000015839278     0.000003926906    -0.000003769693
      13       -0.000010704571    -0.000042050465     0.000014319257
      14       -0.000113521838    -0.000007867545    -0.000136431821
      15       -0.000002124914    -0.000018760759     0.000021723227
      16        0.000014822300     0.000006982612     0.000006470943
      17        0.000006466577    -0.000028489734     0.000012009249
      18        0.000022118179     0.000022268970     0.000010528332
      19       -0.000018602020     0.000020481758    -0.000007147785
      20       -0.000003797154    -0.000014249565    -0.000002673673
      21       -0.000000972508     0.000021451544    -0.000011270285
      22       -0.000010053084     0.000013303678     0.000009627880
      23       -0.000009772262    -0.000005403745    -0.000026885631

  **** Optimization is complete! (in 18 steps) ****
    Final optimized geometry and variables:
    Molecular point group: c1

    Geometry (in Angstrom), charge = 1, multiplicity = 1:

    C           -1.353109637612     0.874961516087    -0.760756682873
    C           -2.423830781657     1.389213466919    -0.058992285636
    C            1.799099939084     0.387228066894    -1.432751282513
    C            0.955768330975    -1.764397774965    -0.815072162103
    C           -1.425410743916     0.652884456570     2.008934306673
    C            2.859465602468    -0.225455259840    -2.060735953686
    C            2.029655063373    -2.348741624379    -1.445257659279
    C           -0.293029302823     0.255052478633    -0.098007202010
    C            0.810919299952    -0.376872803219    -0.813038109318
    C           -2.459086174479     1.287586475769     1.329295075446
    C           -0.378556838772     0.136420392416     1.280433525745
    N            2.937996221485    -1.564563706575    -2.046350033989
    O           -3.527769903457     1.820455579551     1.950703142278
    F            0.617324077896    -0.497249444524     1.926842598730
    H           -1.334605666910     0.948372648292    -1.837973853237
    H           -3.245077757928     1.867335802368    -0.567642328400
    H            1.741273825367     1.463872669469    -1.424123213511
    H            0.225764913378    -2.389443963327    -0.326662090491
    H           -1.423019622350     0.553849501407     3.083377528322
    H            3.653726385549     0.305011888245    -2.558714310249
    H            2.196376586872    -3.411912516493    -1.491234663093
    H            3.725621254140    -2.005525540474    -2.505713804259
    H           -3.461712000101     1.699087286847     2.903967089251

*** Psi4 exiting successfully. Buy a developer a beer!
