                               Psi4 1.1 release

  ==> Input File <==

--------------------------------------------------------------------------

memory 1000 mb

molecule butane {
  symmetry C1
  0 1
  H      3.171   1.292   -6.442
  H      2.256   2.510   -7.299
  H      1.854   0.820   -7.487
  C      2.653   1.517   -7.351
  H      3.112   1.640   -9.446
  H      4.431   2.114   -8.402
  C      3.631   1.416   -8.537
  H      3.665   -0.647   -7.940
  H      4.104   -0.384   -9.610
  C      4.203   -0.012   -8.612
  H      6.088   -0.983   -8.270
  H      5.791   0.381   -7.220
  H      6.230   0.644   -8.890
  C      5.691   0.009   -8.218
  units Angstrom
}

dih_string = "14 10 7 4 250"
set optking fixed_dihedral = $dih_string

optimize('MP2/aug-cc-pvtz')
--------------------------------------------------------------------------

    Molecular point group: c1
  Charge       = 0
  Multiplicity = 1
  Basis Set: AUG-CC-PVTZ
    Blend: AUG-CC-PVTZ
  Basis Set: (AUG-CC-PVTZ AUX)
    Blend: AUG-CC-PVTZ-JKFIT
  @DF-RHF Final Energy:  -157.34708749122828
    Total Energy =                       -157.3470874912282795
  Basis Set: (AUG-CC-PVTZ AUX)
    Blend: AUG-CC-PVTZ-RI
    Molecular point group: c1
  Basis Set: AUG-CC-PVTZ
    Blend: AUG-CC-PVTZ
  Basis Set: (AUG-CC-PVTZ AUX)
    Blend: AUG-CC-PVTZ-JKFIT
  Basis Set: (AUG-CC-PVTZ AUX)
    Blend: AUG-CC-PVTZ-JKFIT
	 Reference Energy          =    -157.3470874912282795 [Eh]
	 Singles Energy            =      -0.0000000000000001 [Eh]
	 Same-Spin Energy          =      -0.1656085610536132 [Eh]
	 Opposite-Spin Energy      =      -0.6396842762829775 [Eh]
	 Correlation Energy        =      -0.8052928373365907 [Eh]
	 Total Energy              =    -158.1523803285648739 [Eh]
	 SCS Total Energy          =    -158.1699114764523983 [Eh]
  @DF-RHF Final Energy:  -157.34975514152572
    Total Energy =                       -157.3497551415257192
  @DF-RHF Final Energy:  -157.35060364887420
    Total Energy =                       -157.3506036488741984
  @DF-RHF Final Energy:  -157.35085956155854
    Total Energy =                       -157.3508595615585364
  @DF-RHF Final Energy:  -157.35085388381748
    Total Energy =                       -157.3508538838174786
  @DF-RHF Final Energy:  -157.35086301014846
    Total Energy =                       -157.3508630101484584
  Charge       = 0
  Multiplicity = 1
  Basis Set: AUG-CC-PVTZ
    Blend: AUG-CC-PVTZ
  Basis Set: (AUG-CC-PVTZ AUX)
    Blend: AUG-CC-PVTZ-JKFIT

    Orbital Energies (a.u.)
    -----------------------

    Doubly Occupied:

       1A    -11.211178     2A    -11.210588     3A    -11.206672
       4A    -11.206666     5A     -1.071922     6A     -0.980873
       7A     -0.863235     8A     -0.786188     9A     -0.630033
      10A     -0.606863    11A     -0.580266    12A     -0.548083
      13A     -0.513291    14A     -0.508271    15A     -0.467083
      16A     -0.454870    17A     -0.453935

  @DF-RHF Final Energy:  -157.35085943185018

   => Energetics <=

    Nuclear Repulsion Energy =            132.0850580198196269
    One-Electron Energy =                -472.2718046630332083
    Two-Electron Energy =                 182.8358872113634277
    DFT Exchange-Correlation Energy =       0.0000000000000000
    Empirical Dispersion Energy =           0.0000000000000000
    PCM Polarization Energy =               0.0000000000000000
    EFP Energy =                            0.0000000000000000
    Total Energy =                       -157.3508594318501821
  Basis Set: (AUG-CC-PVTZ AUX)
    Blend: AUG-CC-PVTZ-RI
    Molecular point group: c1
  Basis Set: AUG-CC-PVTZ
    Blend: AUG-CC-PVTZ
  Basis Set: (AUG-CC-PVTZ AUX)
    Blend: AUG-CC-PVTZ-JKFIT
  Basis Set: (AUG-CC-PVTZ AUX)
    Blend: AUG-CC-PVTZ-JKFIT
	 Reference Energy          =    -157.3508594318501821 [Eh]
	 Singles Energy            =      -0.0000000000000000 [Eh]
	 Same-Spin Energy          =      -0.1654638903706346 [Eh]
	 Opposite-Spin Energy      =      -0.6400460840025541 [Eh]
	 Correlation Energy        =      -0.8055099743731887 [Eh]
	 Total Energy              =    -158.1563694062233765 [Eh]

	 ================> DF-SCS-MP2 Energies <==================
	-----------------------------------------------------------
	 SCS Same-Spin Scale       =       0.3333333333333333 [-]
	 SCS Opposite-Spin Scale   =       1.2000000000000000 [-]
	 SCS Same-Spin Energy      =      -0.0551546301235449 [Eh]
	 SCS Opposite-Spin Energy  =      -0.7680553008030649 [Eh]
	 SCS Correlation Energy    =      -0.8232099309266098 [Eh]
	 SCS Total Energy          =    -158.1740693627768053 [Eh]
	-----------------------------------------------------------

  -Total Gradient:
     Atom            X                  Y                   Z
    ------   -----------------  -----------------  -----------------
       1        0.000004750479    -0.000001657849     0.000025875934
       2       -0.000005857140     0.000019419619     0.000002773155
       3       -0.000013831605    -0.000007748759    -0.000008340708
       4       -0.001139311630    -0.000475844251    -0.000937465490
       5       -0.000007819991    -0.000015153223    -0.000001500863
       6        0.000006729677    -0.000015949318     0.000010432914
       7        0.001722924243     0.000773537010     0.000703499249
       8       -0.000000265640     0.000017266260     0.000010566897
       9        0.000004723817     0.000014181756    -0.000007930261
      10       -0.000953424842    -0.000588729695     0.001673528121
      11        0.000007549537    -0.000020230449     0.000001448094
      12        0.000011079656     0.000005690893     0.000023847445
      13        0.000005648282     0.000005456194    -0.000015713679
      14        0.000357105156     0.000289761808    -0.001481020810

  **** Optimization is complete! (in 7 steps) ****
    Final optimized geometry and variables:
    Molecular point group: c1

    Geometry (in Angstrom), charge = 0, multiplicity = 1:

    H           -0.930984288983     0.534531377209     1.752078897055
    H           -1.836123315874     1.778599713303     0.895852919092
    H           -2.248286041569     0.079700885407     0.680177398607
    C           -1.422503751133     0.776167258426     0.810604031117
    H           -0.967740484134     0.904969705978    -1.273333833887
    H            0.338764942835     1.412806158695    -0.235883287438
    C           -0.446778600684     0.664927822895    -0.347386633698
    H           -0.348550760107    -1.415146431714     0.205642615415
    H            0.084183732238    -1.116527511995    -1.457104779219
    C            0.190142785527    -0.726374730206    -0.445693296106
    H            2.092204236290    -1.717288724295    -0.104456176065
    H            1.800473441242    -0.326330974797     0.934891886898
    H            2.224295196833    -0.085460649754    -0.754335882129
    C            1.661650723181    -0.718907322252    -0.071571217924

*** Psi4 exiting successfully. Buy a developer a beer!
