                               Psi4 1.1 release

  ==> Input File <==

--------------------------------------------------------------------------

memory 5 Gb

molecule phepyrFOH_cation {
  symmetry C1
  1 1
  C      1.885   -1.036   -0.112
  C      0.807   -0.463   0.561
  C      4.716   -3.305   0.461
  C      4.435   -1.716   -1.328
  C      1.800   -1.079   2.676
  C      5.783   -3.854   -0.235
  C      5.510   -2.305   -1.979
  C      2.921   -1.631   0.608
  C      4.038   -2.225   -0.095
  C      0.764   -0.484   1.955
  C      2.878   -1.652   2.002
  N      6.145   -3.345   -1.420
  O      -0.289   0.076   2.612
  F      3.866   -2.220   2.709
  H      1.904   -1.012   -1.199
  H      0.002   -0.002   -0.006
  H      4.428   -3.722   1.422
  H      3.925   -0.874   -1.785
  H      1.772   -1.099   3.762
  H      6.366   -4.693   0.119
  H      5.887   -1.978   -2.937
  H      6.933   -3.762   -1.915
  H      -0.175   -0.018   3.571
  units Angstrom
}

dih_string = "1 8 9 3 210"
set optking fixed_dihedral = $dih_string

optimize('MP2/aug-cc-PVTZ')
--------------------------------------------------------------------------

    Molecular point group: c1
  Charge       = 1
  Multiplicity = 1
  Basis Set: AUG-CC-PVTZ
    Blend: AUG-CC-PVTZ
  Basis Set: (AUG-CC-PVTZ AUX)
    Blend: AUG-CC-PVTZ-JKFIT
  @DF-RHF Final Energy:  -650.55998046530283
    Total Energy =                       -650.5599804653027149
  Basis Set: (AUG-CC-PVTZ AUX)
    Blend: AUG-CC-PVTZ-RI
    Molecular point group: c1
  Basis Set: AUG-CC-PVTZ
    Blend: AUG-CC-PVTZ
  Basis Set: (AUG-CC-PVTZ AUX)
    Blend: AUG-CC-PVTZ-JKFIT
  Basis Set: (AUG-CC-PVTZ AUX)
    Blend: AUG-CC-PVTZ-JKFIT
	 Reference Energy          =    -650.5599804653028286 [Eh]
	 Singles Energy            =      -0.0000000000000001 [Eh]
	 Same-Spin Energy          =      -0.6701475689622637 [Eh]
	 Opposite-Spin Energy      =      -2.0153144725983663 [Eh]
	 Correlation Energy        =      -2.6854620415606298 [Eh]
	 Total Energy              =    -653.2454425068634691 [Eh]
	 SCS Total Energy          =    -653.2017403554083330 [Eh]
  @DF-RHF Final Energy:  -650.56666375033751
    Total Energy =                       -650.5666637503375114
  @DF-RHF Final Energy:  -650.56931678778096
    Total Energy =                       -650.5693167877809628
  @DF-RHF Final Energy:  -650.56988908985932
    Total Energy =                       -650.5698890898593163
  @DF-RHF Final Energy:  -650.56999461169733
    Total Energy =                       -650.5699946116974388
  @DF-RHF Final Energy:  -650.57005305276107
    Total Energy =                       -650.5700530527610681
  Charge       = 1
  Multiplicity = 1
  Basis Set: AUG-CC-PVTZ
    Blend: AUG-CC-PVTZ
  Basis Set: (AUG-CC-PVTZ AUX)
    Blend: AUG-CC-PVTZ-JKFIT

    Orbital Energies (a.u.)
    -----------------------

    Doubly Occupied:

       1A    -26.447100     2A    -20.718257     3A    -15.829098
       4A    -11.479959     5A    -11.478196     6A    -11.475622
       7A    -11.453890     8A    -11.449167     9A    -11.411443
      10A    -11.408112    11A    -11.387852    12A    -11.381839
      13A    -11.362797    14A    -11.353568    15A     -1.767206
      16A     -1.541984    17A     -1.507438    18A     -1.323628
      19A     -1.275853    20A     -1.237573    21A     -1.170806
      22A     -1.161655    23A     -1.065631    24A     -1.062828
      25A     -0.998523    26A     -0.973773    27A     -0.959674
      28A     -0.902176    29A     -0.872675    30A     -0.864470
      31A     -0.855647    32A     -0.834112    33A     -0.819479
      34A     -0.806988    35A     -0.790511    36A     -0.772733
      37A     -0.768155    38A     -0.753270    39A     -0.730472
      40A     -0.720864    41A     -0.708639    42A     -0.691712
      43A     -0.667403    44A     -0.647665    45A     -0.638440
      46A     -0.574239    47A     -0.537871    48A     -0.480316
      49A     -0.446195

  @DF-RHF Final Energy:  -650.57008721607895

   => Energetics <=

    Nuclear Repulsion Energy =            831.2277834999181323
    One-Electron Energy =               -2522.4607309854959567
    Two-Electron Energy =                1040.6628602694988786
    DFT Exchange-Correlation Energy =       0.0000000000000000
    Empirical Dispersion Energy =           0.0000000000000000
    PCM Polarization Energy =               0.0000000000000000
    EFP Energy =                            0.0000000000000000
    Total Energy =                       -650.5700872160789459
  Basis Set: (AUG-CC-PVTZ AUX)
    Blend: AUG-CC-PVTZ-RI
    Molecular point group: c1
  Basis Set: AUG-CC-PVTZ
    Blend: AUG-CC-PVTZ
  Basis Set: (AUG-CC-PVTZ AUX)
    Blend: AUG-CC-PVTZ-JKFIT
  Basis Set: (AUG-CC-PVTZ AUX)
    Blend: AUG-CC-PVTZ-JKFIT
	 Reference Energy          =    -650.5700872160789459 [Eh]
	 Singles Energy            =      -0.0000000000000004 [Eh]
	 Same-Spin Energy          =      -0.6687588465444876 [Eh]
	 Opposite-Spin Energy      =      -2.0123543514836602 [Eh]
	 Correlation Energy        =      -2.6811131980281480 [Eh]
	 Total Energy              =    -653.2512004141070747 [Eh]

	 ================> DF-SCS-MP2 Energies <==================
	-----------------------------------------------------------
	 SCS Same-Spin Scale       =       0.3333333333333333 [-]
	 SCS Opposite-Spin Scale   =       1.2000000000000000 [-]
	 SCS Same-Spin Energy      =      -0.2229196155148292 [Eh]
	 SCS Opposite-Spin Energy  =      -2.4148252217803923 [Eh]
	 SCS Correlation Energy    =      -2.6377448372952217 [Eh]
	 SCS Total Energy          =    -653.2078320533742044 [Eh]
	-----------------------------------------------------------

  -Total Gradient:
     Atom            X                  Y                   Z
    ------   -----------------  -----------------  -----------------
       1        0.000002799596     0.000070100239    -0.000019994987
       2        0.000032998650    -0.000019951083    -0.000018223372
       3        0.000012303301     0.000039394207     0.000023221157
       4        0.000009273190     0.000032431799    -0.000023787526
       5       -0.000033179774    -0.000009992475     0.000039949569
       6        0.000015397783     0.000008635636    -0.000031924200
       7       -0.000004704562    -0.000022633810     0.000001575482
       8       -0.000028504894    -0.000085253213     0.000011115282
       9       -0.000031476314    -0.000068252950     0.000019932431
      10       -0.000014369286    -0.000028859138    -0.000013706628
      11        0.000021327147     0.000163407031    -0.000086196567
      12        0.000004973987    -0.000002757704     0.000007333631
      13       -0.000009825551     0.000018427916     0.000009150894
      14        0.000023424273    -0.000076567492     0.000043656306
      15        0.000008827218    -0.000006437957     0.000014186127
      16       -0.000018755961     0.000003922707     0.000018485860
      17        0.000006753681     0.000004349309    -0.000007283466
      18        0.000005320429    -0.000011435737     0.000008397431
      19        0.000006109817    -0.000008627233    -0.000002587415
      20       -0.000007473550    -0.000002166402     0.000002653996
      21       -0.000004151138     0.000000489771     0.000002038122
      22        0.000003416829     0.000004150553     0.000005226441
      23       -0.000000484864    -0.000002373966    -0.000003218567

  **** Optimization is complete! (in 7 steps) ****
    Final optimized geometry and variables:
    Molecular point group: c1

    Geometry (in Angstrom), charge = 1, multiplicity = 1:

    C           -1.330047142367     0.760438197347    -0.756659497970
    C           -2.406453855720     1.330142768374    -0.119711689092
    C            1.548473845779    -1.537182586044    -0.227494121313
    C            1.243558297513     0.054658002268    -1.983009435540
    C           -1.447881281505     0.739589122419     2.010217122414
    C            2.592468830017    -2.081913276473    -0.932549041736
    C            2.292570265728    -0.512419444076    -2.660764082140
    C           -0.285435347526     0.150416625843    -0.046005036495
    C            0.834239960109    -0.443885246732    -0.738354592101
    C           -2.469490221491     1.326973031836     1.273503303016
    C           -0.393279861448     0.162909350665     1.343813906751
    N            2.936418487097    -1.559977259977    -2.120827991070
    O           -3.542041418776     1.905111849099     1.833798674848
    F            0.594423360147    -0.368055087791     2.084988683775
    H           -1.317085763060     0.743290841557    -1.835647311621
    H           -3.214116622679     1.775176100416    -0.677812883813
    H            1.280222119815    -1.983194072169     0.713649880237
    H            0.761287662256     0.914547469844    -2.417425442901
    H           -1.453715392585     0.729708835356     3.089200163242
    H            3.162952671081    -2.928098319252    -0.587856139507
    H            2.649185005204    -0.156880082286    -3.612955195349
    H            3.711449296093    -1.969047148790    -2.626631939474
    H           -3.498480198289     1.850624278886     2.795218388299

*** Psi4 exiting successfully. Buy a developer a beer!
