                              Psi4 1.0.0 Driver

  ==> Input File <==

--------------------------------------------------------------------------

memory 1000 mb

molecule butane {
  symmetry C1
  0 1
  H      1.604   0.760   -8.260
  H      1.745   2.388   -8.880
  H      2.043   1.024   -9.930
  C      2.142   1.395   -8.932
  H      4.169   2.051   -9.210
  H      3.731   1.788   -7.539
  C      3.631   1.416   -8.537
  H      3.403   -0.709   -8.750
  H      4.882   -0.082   -9.436
  C      4.203   -0.012   -8.612
  H      5.345   -1.329   -7.357
  H      4.270   -0.267   -6.480
  H      5.748   0.360   -7.166
  C      4.948   -0.337   -7.305
  units Angstrom
}

dih_string = "4 7 10 14 230"
set optking fixed_dihedral = $dih_string

optimize('MP2/6-31G(d)')
--------------------------------------------------------------------------

    Molecular point group: c1
  Charge       = 0
  Multiplicity = 1
  Basis Set: 6-31G(D)
  Basis Set:
  @DF-RHF Final Energy:  -157.28833160906754
    Total Energy =                       -157.2883316090675407
  Basis Set:
    Molecular point group: c1
  Basis Set: 6-31G(D)
  Basis Set:
  Basis Set:
	 Reference Energy          =    -157.2883316090675407 [Eh]
	 Singles Energy            =      -0.0000000000000000 [Eh]
	 Same-Spin Energy          =      -0.1244183259549186 [Eh]
	 Opposite-Spin Energy      =      -0.4204117421589494 [Eh]
	 Correlation Energy        =      -0.5448300681138680 [Eh]
	 Total Energy              =    -157.8331616771814083 [Eh]
	 SCS Total Energy          =    -157.8342984749765776 [Eh]
  Basis Set: 6-31G(D)
  Basis Set:
  @DF-RHF Final Energy:  -157.29132104786038
    Total Energy =                       -157.2913210478604071
  Basis Set:
  Basis Set: 6-31G(D)
  Basis Set:
  @DF-RHF Final Energy:  -157.29219503237798
    Total Energy =                       -157.2921950323777764
  @DF-RHF Final Energy:  -157.29248661123034
    Total Energy =                       -157.2924866112302880
  @DF-RHF Final Energy:  -157.29250817998744
    Total Energy =                       -157.2925081799875784
  @DF-RHF Final Energy:  -157.29252286727362
    Total Energy =                       -157.2925228672736182
	 Singles Energy            =      -0.0000000000000000 [Eh]
	 Same-Spin Energy          =      -0.1242896625405934 [Eh]
	 Opposite-Spin Energy      =      -0.4223946835726909 [Eh]
	 Correlation Energy        =      -0.5466843461132843 [Eh]
	 Total Energy              =    -157.8392072133869135 [Eh]
	 SCS Total Energy          =    -157.8408263750743856 [Eh]
  Charge       = 0
  Multiplicity = 1
  Basis Set: 6-31G(D)
  Basis Set:

    Orbital Energies (a.u.)
    -----------------------

    Doubly Occupied:

       1A    -11.215499     2A    -11.214938     3A    -11.210484
       4A    -11.210478     5A     -1.067831     6A     -0.979298
       7A     -0.859582     8A     -0.786362     9A     -0.631158
      10A     -0.592436    11A     -0.580742    12A     -0.554375
      13A     -0.509506    14A     -0.504947    15A     -0.465022
      16A     -0.455589    17A     -0.454066

  @DF-RHF Final Energy:  -157.29252330491187

   => Energetics <=

    Nuclear Repulsion Energy =            130.9129416166157966
    One-Electron Energy =                -469.8263044462785274
    Two-Electron Energy =                 181.6208395247509770
    DFT Exchange-Correlation Energy =       0.0000000000000000
    Empirical Dispersion Energy =           0.0000000000000000
    PCM Polarization Energy =               0.0000000000000000
    EFP Energy =                            0.0000000000000000
    Total Energy =                       -157.2925233049117537
  Basis Set:
    Molecular point group: c1
  Basis Set: 6-31G(D)
  Basis Set:
  Basis Set:
	 Reference Energy          =    -157.2925233049118674 [Eh]
	 Singles Energy            =      -0.0000000000000000 [Eh]
	 Same-Spin Energy          =      -0.1242884232829285 [Eh]
	 Opposite-Spin Energy      =      -0.4223955269340599 [Eh]
	 Correlation Energy        =      -0.5466839502169883 [Eh]
	 Total Energy              =    -157.8392072551288550 [Eh]

	 ================> DF-SCS-MP2 Energies <==================
	-----------------------------------------------------------
	 SCS Same-Spin Scale       =       0.3333333333333333 [-]
	 SCS Opposite-Spin Scale   =       1.2000000000000000 [-]
	 SCS Same-Spin Energy      =      -0.0414294744276428 [Eh]
	 SCS Opposite-Spin Energy  =      -0.5068746323208718 [Eh]
	 SCS Correlation Energy    =      -0.5483041067485147 [Eh]
	 SCS Total Energy          =    -157.8408274116603707 [Eh]
	-----------------------------------------------------------

  -Total Gradient:
     Atom            X                  Y                   Z
    ------   -----------------  -----------------  -----------------
       1       -0.000000350960     0.000003827531    -0.000006381213
       2        0.000000273781    -0.000007322509    -0.000001076788
       3        0.000003184326     0.000001392150     0.000003447448
       4       -0.000470124427    -0.000232209433     0.001771463883
       5       -0.000007135093    -0.000007979952    -0.000015701981
       6       -0.000033041410     0.000017513207    -0.000005138985
       7        0.000112551797     0.000070462678    -0.002124138764
       8        0.000019642687    -0.000023558171     0.000023313167
       9        0.000012824695     0.000010045922     0.000007250542
      10        0.001912737178     0.000872929587    -0.000363217062
      11       -0.000001898335     0.000006823710     0.000002655611
      12        0.000007260289    -0.000000744164    -0.000001611063
      13       -0.000003521787    -0.000001443267    -0.000003575315
      14       -0.001552402741    -0.000709737289     0.000712710519

  **** Optimization is complete! (in 7 steps) ****
    Final optimized geometry and variables:
    Molecular point group: c1

    Geometry (in Angstrom), charge = 0, multiplicity = 1:

    H           -2.182978690953     0.167169310308     0.061574230328
    H           -2.020181684234     1.803370377958    -0.592112438833
    H           -1.729151186564     0.401238873999    -1.629832806455
    C           -1.598094424383     0.794616882883    -0.617308483815
    H            0.437456140750     1.466308529943    -0.866821729871
    H           -0.040102841590     1.206334419990     0.795493211519
    C           -0.126556624805     0.790146686217    -0.215460341876
    H           -0.294224584044    -1.362054089908    -0.384533389309
    H            1.165229320978    -0.719787097074    -1.103162944254
    C            0.497794489017    -0.617223013660    -0.240847348602
    H            1.688476051074    -1.957878645178     0.999804227116
    H            0.584042560197    -0.911927912946     1.903781510687
    H            2.067223152011    -0.243796486157     1.214299526838
    C            1.254085620988    -0.954856849050     1.040148875120

*** Psi4 exiting successfully. Buy a developer a beer!
