                               Psi4 1.1 release

  ==> Input File <==

--------------------------------------------------------------------------

memory 5 Gb

molecule phepyrFOH_anion {
  symmetry C1
  -1 1
  C      1.885   -1.036   -0.112
  C      0.807   -0.463   0.561
  C      5.298   -2.251   0.492
  C      3.855   -2.771   -1.360
  C      1.800   -1.079   2.676
  C      6.334   -2.832   -0.221
  C      4.956   -3.328   -1.991
  C      2.921   -1.631   0.608
  C      4.038   -2.224   -0.095
  C      0.764   -0.484   1.955
  C      2.878   -1.652   2.002
  N      6.195   -3.373   -1.452
  O      -0.227   0.043   2.574
  F      3.866   -2.220   2.709
  H      1.904   -1.013   -1.200
  H      0.011   -0.007   -0.025
  H      5.479   -1.836   1.479
  H      2.887   -2.767   -1.850
  H      1.791   -1.109   3.764
  H      7.335   -2.880   0.194
  H      4.866   -3.766   -2.980
  units Angstrom
}

dih_string = "1 8 9 3 150"
set optking { fixed_dihedral = $dih_string
              dynamic_level = 1
              geom_maxiter = 250
              print_trajectory_xyz_file = True }

optimize('MP2/aug-cc-PVTZ')
--------------------------------------------------------------------------

    Molecular point group: c1
  Charge       = -1
  Multiplicity = 1
  Basis Set: AUG-CC-PVTZ
    Blend: AUG-CC-PVTZ
  Basis Set: (AUG-CC-PVTZ AUX)
    Blend: AUG-CC-PVTZ-JKFIT
  @DF-RHF Final Energy:  -649.60874283182989
    Total Energy =                       -649.6087428318298862
  Basis Set: (AUG-CC-PVTZ AUX)
    Blend: AUG-CC-PVTZ-RI
    Molecular point group: c1
  Basis Set: AUG-CC-PVTZ
    Blend: AUG-CC-PVTZ
  Basis Set: (AUG-CC-PVTZ AUX)
    Blend: AUG-CC-PVTZ-JKFIT
  Basis Set: (AUG-CC-PVTZ AUX)
    Blend: AUG-CC-PVTZ-JKFIT
	 Reference Energy          =    -649.6087428318298862 [Eh]
	 Singles Energy            =      -0.0000000000000002 [Eh]
	 Same-Spin Energy          =      -0.6868858383798057 [Eh]
	 Opposite-Spin Energy      =      -2.0271433495408395 [Eh]
	 Correlation Energy        =      -2.7140291879206453 [Eh]
	 Total Energy              =    -652.3227720197505732 [Eh]
	 SCS Total Energy          =    -652.2702767974054723 [Eh]
  @DF-RHF Final Energy:  -649.60874283717715
    Total Energy =                       -649.6087428371770329
  @DF-RHF Final Energy:  -649.62151419107477
    Total Energy =                       -649.6215141910747661
  @DF-RHF Final Energy:  -649.62573008738377
    Total Energy =                       -649.6257300873837721
  @DF-RHF Final Energy:  -649.62623780720480
    Total Energy =                       -649.6262378072049160
  @DF-RHF Final Energy:  -649.62629837949135
    Total Energy =                       -649.6262983794913453
  @DF-RHF Final Energy:  -649.62629505065468
    Total Energy =                       -649.6262950506545621
  @DF-RHF Final Energy:  -649.62630673255887
    Total Energy =                       -649.6263067325587599
  Charge       = -1
  Multiplicity = 1
  Basis Set: AUG-CC-PVTZ
    Blend: AUG-CC-PVTZ
  Basis Set: (AUG-CC-PVTZ AUX)
    Blend: AUG-CC-PVTZ-JKFIT

    Orbital Energies (a.u.)
    -----------------------

    Doubly Occupied:

       1A    -26.178705     2A    -20.330644     3A    -15.446876
       4A    -11.194806     5A    -11.162950     6A    -11.161344
       7A    -11.151804     8A    -11.146902     9A    -11.117781
      10A    -11.114426    11A    -11.112738    12A    -11.088640
      13A    -11.070391    14A    -11.068926    15A     -1.491038
      16A     -1.162830    17A     -1.144037    18A     -1.024795
      19A     -0.967351    20A     -0.919377    21A     -0.878572
      22A     -0.852676    23A     -0.746501    24A     -0.741594
      25A     -0.695541    26A     -0.676600    27A     -0.608571
      28A     -0.578950    29A     -0.567463    30A     -0.559993
      31A     -0.543634    32A     -0.526652    33A     -0.509029
      34A     -0.481219    35A     -0.476887    36A     -0.457841
      37A     -0.436395    38A     -0.433730    39A     -0.402359
      40A     -0.392257    41A     -0.388985    42A     -0.367255
      43A     -0.325835    44A     -0.309471    45A     -0.255019
      46A     -0.240087    47A     -0.237163    48A     -0.210231
      49A     -0.120382

  @DF-RHF Final Energy:  -649.62630142052683

   => Energetics <=

    Nuclear Repulsion Energy =            797.0292982923310774
    One-Electron Energy =               -2483.1566909697858136
    Two-Electron Energy =                1036.5010912569277934
    DFT Exchange-Correlation Energy =       0.0000000000000000
    Empirical Dispersion Energy =           0.0000000000000000
    PCM Polarization Energy =               0.0000000000000000
    EFP Energy =                            0.0000000000000000
    Total Energy =                       -649.6263014205269428
  Basis Set: (AUG-CC-PVTZ AUX)
    Blend: AUG-CC-PVTZ-RI
    Molecular point group: c1
  Basis Set: AUG-CC-PVTZ
    Blend: AUG-CC-PVTZ
  Basis Set: (AUG-CC-PVTZ AUX)
    Blend: AUG-CC-PVTZ-JKFIT
  Basis Set: (AUG-CC-PVTZ AUX)
    Blend: AUG-CC-PVTZ-JKFIT
	 Reference Energy          =    -649.6263014205268291 [Eh]
	 Singles Energy            =      -0.0000000000000004 [Eh]
	 Same-Spin Energy          =      -0.6847704140508086 [Eh]
	 Opposite-Spin Energy      =      -2.0250789906635793 [Eh]
	 Correlation Energy        =      -2.7098494047143884 [Eh]
	 Total Energy              =    -652.3361508252412477 [Eh]

	 ================> DF-SCS-MP2 Energies <==================
	-----------------------------------------------------------
	 SCS Same-Spin Scale       =       0.3333333333333333 [-]
	 SCS Opposite-Spin Scale   =       1.2000000000000000 [-]
	 SCS Same-Spin Energy      =      -0.2282568046836029 [Eh]
	 SCS Opposite-Spin Energy  =      -2.4300947887962949 [Eh]
	 SCS Correlation Energy    =      -2.6583515934798982 [Eh]
	 SCS Total Energy          =    -652.2846530140067216 [Eh]
	-----------------------------------------------------------

  -Total Gradient:
     Atom            X                  Y                   Z
    ------   -----------------  -----------------  -----------------
       1        0.000495272481     0.000828607034     0.000021915560
       2       -0.000011205677     0.000022132703     0.000018498036
       3        0.000164476333     0.000909789221    -0.000400670717
       4       -0.000007822147    -0.000006508865    -0.000074891221
       5        0.000021147041    -0.000058971028     0.000075589783
       6       -0.000010732096     0.000026353492     0.000024887690
       7       -0.000065498370     0.000066117995    -0.000022128869
       8       -0.000644806194    -0.000801451346    -0.000282921573
       9       -0.000038637372    -0.000973014924     0.000771440827
      10       -0.000041202369     0.000017312392    -0.000058686044
      11        0.000033652287     0.000124923533    -0.000065675006
      12        0.000052554423    -0.000046988805    -0.000002743955
      13        0.000041601304    -0.000026031979    -0.000021062316
      14        0.000018716603    -0.000057510617     0.000014521818
      15       -0.000004937382    -0.000010547478    -0.000004673022
      16       -0.000006925602     0.000004580823     0.000009327315
      17        0.000013958887    -0.000013044610    -0.000012595331
      18        0.000001894496    -0.000004589892     0.000013165882
      19       -0.000014318167     0.000011519590    -0.000008515912
      20        0.000002018692     0.000003021988    -0.000000756064
      21        0.000000792822    -0.000015699224     0.000005973123

  **** Optimization is complete! (in 7 steps) ****
    Final optimized geometry and variables:
    Molecular point group: c1

    Geometry (in Angstrom), charge = -1, multiplicity = 1:

    C           -1.349309030582     0.727220529802    -0.736321098990
    C           -2.420537875350     1.319915226781    -0.115338003352
    C            2.137889975609    -0.521379495590    -0.220135561826
    C            0.692574630081    -0.986973244559    -2.025163029538
    C           -1.462623391077     0.761651132659     2.013896574840
    C            3.163459364935    -1.065880471636    -0.971957776713
    C            1.779839648023    -1.505505004688    -2.703290158287
    C           -0.280791501310     0.131228118425    -0.037339147527
    C            0.834217800007    -0.459886670462    -0.733227275184
    C           -2.555687027100     1.372867286904     1.314260018057
    C           -0.408221886203     0.196787359775     1.353572243115
    N            3.022440553066    -1.561427827249    -2.207840247567
    O           -3.535090822350     1.906912815501     1.900189731800
    F            0.564975233194    -0.389320614670     2.122092105828
    H           -1.297501604245     0.753884064923    -1.816870119443
    H           -3.199629395575     1.784166020040    -0.703499733304
    H            2.352260137592    -0.129242983856     0.759721873994
    H           -0.280123251128    -1.013660531543    -2.492407186673
    H           -1.482261176696     0.740709962710     3.092615664357
    H            4.163856596136    -1.099123732080    -0.559193283734
    H            1.645178565481    -1.910084237994    -3.698634166373

*** Psi4 exiting successfully. Buy a developer a beer!
