                               Psi4 1.1 release

  ==> Input File <==

--------------------------------------------------------------------------

memory 5 Gb

molecule phepyrFOH_cation {
  symmetry C1
  1 1
  C      1.885   -1.036   -0.112
  C      0.807   -0.463   0.561
  C      4.830   -1.443   -0.930
  C      4.321   -3.578   0.063
  C      1.800   -1.079   2.676
  C      5.894   -2.040   -1.592
  C      5.398   -4.120   -0.624
  C      2.921   -1.631   0.608
  C      4.038   -2.225   -0.095
  C      0.764   -0.484   1.955
  C      2.878   -1.652   2.002
  N      6.144   -3.345   -1.422
  O      -0.289   0.076   2.612
  F      3.866   -2.220   2.709
  H      1.904   -1.012   -1.199
  H      0.002   -0.002   -0.006
  H      4.632   -0.385   -1.072
  H      3.719   -4.212   0.708
  H      1.772   -1.099   3.762
  H      6.561   -1.511   -2.259
  H      5.691   -5.159   -0.561
  H      6.930   -3.764   -1.918
  H      -0.988   -0.583   2.749
  units Angstrom
}

dih_string = "2 10 13 23 90"
set optking fixed_dihedral = $dih_string

optimize('MP2/aug-cc-PVTZ')
--------------------------------------------------------------------------

    Molecular point group: c1
  Charge       = 1
  Multiplicity = 1
  Basis Set: AUG-CC-PVTZ
    Blend: AUG-CC-PVTZ
  Basis Set: (AUG-CC-PVTZ AUX)
    Blend: AUG-CC-PVTZ-JKFIT
  @DF-RHF Final Energy:  -650.55429215626282
    Total Energy =                       -650.5542921562628180
  Basis Set: (AUG-CC-PVTZ AUX)
    Blend: AUG-CC-PVTZ-RI
    Molecular point group: c1
  Basis Set: AUG-CC-PVTZ
    Blend: AUG-CC-PVTZ
  Basis Set: (AUG-CC-PVTZ AUX)
    Blend: AUG-CC-PVTZ-JKFIT
  Basis Set: (AUG-CC-PVTZ AUX)
    Blend: AUG-CC-PVTZ-JKFIT
	 Reference Energy          =    -650.5542921562628180 [Eh]
	 Singles Energy            =      -0.0000000000000001 [Eh]
	 Same-Spin Energy          =      -0.6686065456311731 [Eh]
	 Opposite-Spin Energy      =      -2.0132054416326097 [Eh]
	 Correlation Energy        =      -2.6818119872637829 [Eh]
	 Total Energy              =    -653.2361041435266316 [Eh]
	 SCS Total Energy          =    -653.1930075347656839 [Eh]
  @DF-RHF Final Energy:  -650.55905016190627
    Total Energy =                       -650.5590501619062707
  @DF-RHF Final Energy:  -650.56008580650507
    Total Energy =                       -650.5600858065049579
  @DF-RHF Final Energy:  -650.56041645642676
    Total Energy =                       -650.5604164564267649
  @DF-RHF Final Energy:  -650.56069629961144
    Total Energy =                       -650.5606962996114362
  @DF-RHF Final Energy:  -650.56104293261183
    Total Energy =                       -650.5610429326118265
  @DF-RHF Final Energy:  -650.56141169885802
    Total Energy =                       -650.5614116988581372
  @DF-RHF Final Energy:  -650.56174171208363
    Total Energy =                       -650.5617417120836308
  @DF-RHF Final Energy:  -650.56199867062128
    Total Energy =                       -650.5619986706212785
  @DF-RHF Final Energy:  -650.56217663114728
    Total Energy =                       -650.5621766311473948
  @DF-RHF Final Energy:  -650.56227448097775
    Total Energy =                       -650.5622744809777487
  @DF-RHF Final Energy:  -650.56228614586530
    Total Energy =                       -650.5622861458653006
  @DF-RHF Final Energy:  -650.56224597637924
    Total Energy =                       -650.5622459763792449
  @DF-RHF Final Energy:  -650.56229968282025
    Total Energy =                       -650.5622996828201394
  Charge       = 1
  Multiplicity = 1
  Basis Set: AUG-CC-PVTZ
    Blend: AUG-CC-PVTZ
  Basis Set: (AUG-CC-PVTZ AUX)
    Blend: AUG-CC-PVTZ-JKFIT

    Orbital Energies (a.u.)
    -----------------------

    Doubly Occupied:

       1A    -26.444465     2A    -20.695522     3A    -15.834574
       4A    -11.484143     5A    -11.482296     6A    -11.470700
       7A    -11.456757     8A    -11.437238     9A    -11.415884
      10A    -11.412780    11A    -11.388129    12A    -11.386906
      13A    -11.360183    14A    -11.357235    15A     -1.764617
      16A     -1.516484    17A     -1.512237    18A     -1.325858
      19A     -1.276564    20A     -1.241844    21A     -1.170242
      22A     -1.159519    23A     -1.068421    24A     -1.064965
      25A     -0.989300    26A     -0.974934    27A     -0.963351
      28A     -0.894175    29A     -0.875019    30A     -0.866890
      31A     -0.842044    32A     -0.833692    33A     -0.819444
      34A     -0.811047    35A     -0.794815    36A     -0.776459
      37A     -0.761733    38A     -0.757384    39A     -0.744067
      40A     -0.717597    41A     -0.707103    42A     -0.673709
      43A     -0.662496    44A     -0.644539    45A     -0.604005
      46A     -0.582803    47A     -0.540966    48A     -0.476484
      49A     -0.459807

  @DF-RHF Final Energy:  -650.56230729647382

   => Energetics <=

    Nuclear Repulsion Energy =            830.6898302052483132
    One-Electron Energy =               -2521.5014242827023736
    Two-Electron Energy =                1040.2492867809803556
    DFT Exchange-Correlation Energy =       0.0000000000000000
    Empirical Dispersion Energy =           0.0000000000000000
    PCM Polarization Energy =               0.0000000000000000
    EFP Energy =                            0.0000000000000000
    Total Energy =                       -650.5623072964738185
  Basis Set: (AUG-CC-PVTZ AUX)
    Blend: AUG-CC-PVTZ-RI
    Molecular point group: c1
  Basis Set: AUG-CC-PVTZ
    Blend: AUG-CC-PVTZ
  Basis Set: (AUG-CC-PVTZ AUX)
    Blend: AUG-CC-PVTZ-JKFIT
  Basis Set: (AUG-CC-PVTZ AUX)
    Blend: AUG-CC-PVTZ-JKFIT
	 Reference Energy          =    -650.5623072964738185 [Eh]
	 Singles Energy            =      -0.0000000000000003 [Eh]
	 Same-Spin Energy          =      -0.6684843156362159 [Eh]
	 Opposite-Spin Energy      =      -2.0120582682857138 [Eh]
	 Correlation Energy        =      -2.6805425839219299 [Eh]
	 Total Energy              =    -653.2428498803957382 [Eh]

	 ================> DF-SCS-MP2 Energies <==================
	-----------------------------------------------------------
	 SCS Same-Spin Scale       =       0.3333333333333333 [-]
	 SCS Opposite-Spin Scale   =       1.2000000000000000 [-]
	 SCS Same-Spin Energy      =      -0.2228281052120720 [Eh]
	 SCS Opposite-Spin Energy  =      -2.4144699219428563 [Eh]
	 SCS Correlation Energy    =      -2.6372980271549289 [Eh]
	 SCS Total Energy          =    -653.1996053236287025 [Eh]
	-----------------------------------------------------------

  -Total Gradient:
     Atom            X                  Y                   Z
    ------   -----------------  -----------------  -----------------
       1        0.000003888710    -0.000003539691     0.000007848791
       2        0.000178596475     0.000219478546     0.000081626993
       3        0.000001473345    -0.000000600990     0.000014385539
       4       -0.000025940696    -0.000002715086     0.000027994925
       5        0.000003763915    -0.000005454606     0.000014422996
       6        0.000004719219    -0.000018833467     0.000000128648
       7        0.000005371499     0.000003583089    -0.000007409030
       8       -0.000010400865     0.000009513478    -0.000020712542
       9        0.000022091105     0.000006909815    -0.000036436410
      10       -0.000241902860    -0.000386617582    -0.000033000278
      11       -0.000010530623     0.000003357895    -0.000000753673
      12       -0.000013964533     0.000014955935     0.000007726834
      13       -0.000053423365     0.000344514384    -0.000385674073
      14        0.000006011622     0.000003529181    -0.000011753602
      15        0.000001316109    -0.000002873589     0.000008272879
      16        0.000005558935    -0.000002811368     0.000008304730
      17        0.000001284494    -0.000017196612     0.000006714832
      18        0.000009817777     0.000005880397    -0.000013677852
      19       -0.000006754517     0.000006144651    -0.000010595355
      20       -0.000001438728    -0.000006402229     0.000007110605
      21        0.000000207717     0.000009612617    -0.000003746614
      22        0.000000611914     0.000001188205     0.000003102240
      23        0.000119643347    -0.000181622971     0.000336119424

  **** Optimization is complete! (in 15 steps) ****
    Final optimized geometry and variables:
    Molecular point group: c1

    Geometry (in Angstrom), charge = 1, multiplicity = 1:

    C           -1.175981481934     1.023038817848    -0.714766868203
    C           -2.245997825048     1.595225180949    -0.058955194523
    C            1.459480456154     0.281703763802    -1.806185242994
    C            1.360113225085    -1.665229297455    -0.423112368121
    C           -1.551619153997     0.537306881295     1.990003612791
    C            2.513984853982    -0.273207721356    -2.487643487087
    C            2.415300566777    -2.192582175429    -1.126364028016
    C           -0.274010334743     0.185756357308    -0.047608463387
    C            0.848488938524    -0.402998583653    -0.749113794087
    C           -2.438661060704     1.348956430266     1.296932639406
    C           -0.501625279061    -0.034099965756     1.309981711058
    N            2.960247374574    -1.487753929550    -2.130344411737
    O           -3.440937841953     1.978488822614     1.974557129435
    F            0.363688398565    -0.794761090420     2.002148782902
    H           -1.055828961603     1.195064377440    -1.773706624078
    H           -2.939024153143     2.234740251387    -0.581461579688
    H            1.132457367545     1.270386479265    -2.083202695427
    H            0.926522433483    -2.250687779008     0.368441341744
    H           -1.671496007506     0.366573141752     3.047448602758
    H            3.025336605253     0.216745101897    -3.299247488833
    H            2.840249439328    -3.161307048392    -0.923282368316
    H            3.741214572379    -1.886620402161    -2.635914730505
    H           -4.251339936310     1.459576901531     1.940257125646

*** Psi4 exiting successfully. Buy a developer a beer!
