                               Psi4 1.1 release

  ==> Input File <==

--------------------------------------------------------------------------

memory 5 Gb

molecule phepyrOH_cation {
  symmetry C1
  1 1
  C      1.885   -1.036   -0.112
  C      2.878   -1.652   2.002
  C      0.807   -0.463   0.561
  C      1.800   -1.079   2.676
  C      5.298   -2.250   0.504
  C      3.860   -2.773   -1.357
  C      6.353   -2.827   -0.189
  C      4.951   -3.336   -2.003
  C      2.921   -1.631   0.608
  C      4.040   -2.225   -0.090
  C      0.764   -0.484   1.955
  N      6.152   -3.346   -1.408
  O      -0.288   0.076   2.612
  H      1.904   -1.012   -1.199
  H      3.678   -2.112   2.578
  H      0.003   -0.001   -0.006
  H      1.772   -1.098   3.762
  H      5.467   -1.831   1.491
  H      2.889   -2.767   -1.845
  H      7.362   -2.891   0.194
  H      4.904   -3.783   -2.986
  H      6.940   -3.764   -1.901
  H      -0.175   -0.018   3.571
  units Angstrom
}

dih_string = "1 9 10 5 150"
set optking fixed_dihedral = $dih_string

optimize('MP2/aug-cc-PVTZ')
--------------------------------------------------------------------------

    Molecular point group: c1
  Charge       = 1
  Multiplicity = 1
  Basis Set: AUG-CC-PVTZ
    Blend: AUG-CC-PVTZ
  Basis Set: (AUG-CC-PVTZ AUX)
    Blend: AUG-CC-PVTZ-JKFIT
  @DF-RHF Final Energy:  -551.67611442020461
    Total Energy =                       -551.6761144202046125
  Basis Set: (AUG-CC-PVTZ AUX)
    Blend: AUG-CC-PVTZ-RI
    Molecular point group: c1
  Basis Set: AUG-CC-PVTZ
    Blend: AUG-CC-PVTZ
  Basis Set: (AUG-CC-PVTZ AUX)
    Blend: AUG-CC-PVTZ-JKFIT
  Basis Set: (AUG-CC-PVTZ AUX)
    Blend: AUG-CC-PVTZ-JKFIT
	 Reference Energy          =    -551.6761144202046125 [Eh]
	 Singles Energy            =      -0.0000000000000001 [Eh]
	 Same-Spin Energy          =      -0.5966544186374190 [Eh]
	 Opposite-Spin Energy      =      -1.8256188815131174 [Eh]
	 Correlation Energy        =      -2.4222733001505361 [Eh]
	 Total Energy              =    -554.0983877203551629 [Eh]
	 SCS Total Energy          =    -554.0657418842328070 [Eh]
  @DF-RHF Final Energy:  -551.68162996002275
    Total Energy =                       -551.6816299600227467
  @DF-RHF Final Energy:  -551.68296842457755
    Total Energy =                       -551.6829684245775525
  @DF-RHF Final Energy:  -551.68295061515528
    Total Energy =                       -551.6829506151552778
  Charge       = 1
  Multiplicity = 1
  Basis Set: AUG-CC-PVTZ
    Blend: AUG-CC-PVTZ
  Basis Set: (AUG-CC-PVTZ AUX)
    Blend: AUG-CC-PVTZ-JKFIT

    Orbital Energies (a.u.)
    -----------------------

    Doubly Occupied:

       1A    -20.709002     2A    -15.826682     3A    -11.478740
       4A    -11.478595     5A    -11.448804     6A    -11.435720
       7A    -11.408648     8A    -11.408308     9A    -11.380265
      10A    -11.376779    11A    -11.372151    12A    -11.355773
      13A    -11.349019    14A     -1.532222    15A     -1.505645
      16A     -1.318331    17A     -1.266461    18A     -1.236770
      19A     -1.157246    20A     -1.156434    21A     -1.061657
      22A     -1.057488    23A     -0.979959    24A     -0.961061
      25A     -0.953958    26A     -0.873313    27A     -0.861644
      28A     -0.855408    29A     -0.819662    30A     -0.799759
      31A     -0.784137    32A     -0.770529    33A     -0.758217
      34A     -0.731509    35A     -0.723318    36A     -0.712786
      37A     -0.702826    38A     -0.687446    39A     -0.662232
      40A     -0.637721    41A     -0.619487    42A     -0.569156
      43A     -0.538402    44A     -0.474456    45A     -0.436332

  @DF-RHF Final Energy:  -551.68295714091744

   => Energetics <=

    Nuclear Repulsion Energy =            713.6880621034143815
    One-Electron Energy =               -2150.2739161671697730
    Two-Electron Energy =                 884.9028969228380674
    DFT Exchange-Correlation Energy =       0.0000000000000000
    Empirical Dispersion Energy =           0.0000000000000000
    PCM Polarization Energy =               0.0000000000000000
    EFP Energy =                            0.0000000000000000
    Total Energy =                       -551.6829571409174378
  Basis Set: (AUG-CC-PVTZ AUX)
    Blend: AUG-CC-PVTZ-RI
    Molecular point group: c1
  Basis Set: AUG-CC-PVTZ
    Blend: AUG-CC-PVTZ
  Basis Set: (AUG-CC-PVTZ AUX)
    Blend: AUG-CC-PVTZ-JKFIT
  Basis Set: (AUG-CC-PVTZ AUX)
    Blend: AUG-CC-PVTZ-JKFIT
	 Reference Energy          =    -551.6829571409174378 [Eh]
	 Singles Energy            =      -0.0000000000000003 [Eh]
	 Same-Spin Energy          =      -0.5957810612334058 [Eh]
	 Opposite-Spin Energy      =      -1.8234716626068255 [Eh]
	 Correlation Energy        =      -2.4192527238402319 [Eh]
	 Total Energy              =    -554.1022098647576968 [Eh]

	 ================> DF-SCS-MP2 Energies <==================
	-----------------------------------------------------------
	 SCS Same-Spin Scale       =       0.3333333333333333 [-]
	 SCS Opposite-Spin Scale   =       1.2000000000000000 [-]
	 SCS Same-Spin Energy      =      -0.1985936870778019 [Eh]
	 SCS Opposite-Spin Energy  =      -2.1881659951281907 [Eh]
	 SCS Correlation Energy    =      -2.3867596822059931 [Eh]
	 SCS Total Energy          =    -554.0697168231234855 [Eh]
	-----------------------------------------------------------

  -Total Gradient:
     Atom            X                  Y                   Z
    ------   -----------------  -----------------  -----------------
       1        0.000524694535     0.000668391116     0.000063240767
       2       -0.000012569883    -0.000053566710     0.000064902691
       3       -0.000143591104     0.000018030563     0.000059050606
       4        0.000101229355     0.000007086959    -0.000038011334
       5        0.000226676687     0.000706607399    -0.000400803606
       6        0.000069331656    -0.000021419694    -0.000030507096
       7        0.000029258901     0.000061665321     0.000081011491
       8       -0.000084993115    -0.000029562683    -0.000028158638
       9       -0.000582533584    -0.000662248984    -0.000316263977
      10       -0.000107683111    -0.000741076511     0.000580721592
      11        0.000034096666     0.000032938248     0.000009334111
      12       -0.000004382122    -0.000001698375    -0.000003197272
      13       -0.000011256450    -0.000019081101    -0.000003327624
      14       -0.000010699064     0.000025737269     0.000002628447
      15       -0.000015731013     0.000004144148    -0.000004493812
      16        0.000042917670    -0.000021751461    -0.000019475285
      17       -0.000022233651     0.000003431774    -0.000011088394
      18       -0.000019346008     0.000000415810    -0.000002782926
      19       -0.000005835684     0.000015516144     0.000021999939
      20       -0.000009097545    -0.000011959274    -0.000008908437
      21        0.000012895884     0.000011923764     0.000005035669
      22       -0.000011945247     0.000004916853     0.000006387118
      23        0.000000796218     0.000001559432    -0.000027294014

  **** Optimization is complete! (in 5 steps) ****
    Final optimized geometry and variables:
    Molecular point group: c1

    Geometry (in Angstrom), charge = 1, multiplicity = 1:

    C           -1.294118516647     0.709822469838    -0.549957773166
    C           -0.287952797998     0.114930872065     1.553262553822
    C           -2.351877995896     1.288926594369     0.115321449943
    C           -1.354847505676     0.677267802651     2.223611811187
    C            2.155937110664    -0.516285826428     0.019404034095
    C            0.727991686297    -1.020878260726    -1.827348204984
    C            3.207450771356    -1.072752087698    -0.662924651066
    C            1.799703347770    -1.568285780148    -2.485133376689
    C           -0.243015470883     0.113416301360     0.156168885629
    C            0.873159890318    -0.475748855549    -0.544096224616
    C           -2.391916382036     1.272015300490     1.508031836053
    N            3.004214056427    -1.581153126956    -1.889937478500
    O           -3.457947616178     1.846169165407     2.089194562182
    H           -1.267065163499     0.763178027571    -1.627932755731
    H            0.489000914704    -0.369089964428     2.125812118019
    H           -3.154158701320     1.769243023761    -0.422095644560
    H           -1.389035369667     0.649665880348     3.303013074621
    H            2.345529719887    -0.084017877757     0.988019683244
    H           -0.235883906637    -1.046910456990    -2.308314186103
    H            4.211889516807    -1.118561420427    -0.276411892920
    H            1.735910124890    -2.008541578013    -3.466237272743
    H            3.787460388027    -1.987640863179    -2.384554831880
    H           -3.392969703414     1.788087890807     3.049042223828

*** Psi4 exiting successfully. Buy a developer a beer!
