                               Psi4 1.1 release

  ==> Input File <==

--------------------------------------------------------------------------

memory 5 Gb

molecule phepyrF {
  symmetry C1
  0 1
  C      1.885   -1.036   -0.112
  C      0.807   -0.463   0.561
  C      2.921   -1.631   0.608
  C      0.764   -0.484   1.955
  C      5.278   -2.017   2.398
  C      3.672   -3.118   3.810
  C      6.272   -2.632   3.142
  C      4.738   -3.683   4.490
  C      2.878   -1.652   2.002
  C      3.955   -2.270   2.745
  C      1.800   -1.079   2.676
  N      6.036   -3.461   4.183
  F      1.744   -1.089   4.016
  H      1.918   -1.020   -1.198
  H      0.000   -0.000   -0.000
  H      3.755   -2.073   0.068
  H      -0.076   -0.038   2.480
  H      5.539   -1.360   1.575
  H      2.652   -3.339   4.109
  H      7.320   -2.465   2.913
  H      4.570   -4.353   5.327
  units Angstrom
}

dih_string = "3 9 10 5 45"
set optking fixed_dihedral = $dih_string

optimize('MP2/aug-cc-PVTZ')
--------------------------------------------------------------------------

    Molecular point group: c1
  Charge       = 0
  Multiplicity = 1
  Basis Set: AUG-CC-PVTZ
    Blend: AUG-CC-PVTZ
  Basis Set: (AUG-CC-PVTZ AUX)
    Blend: AUG-CC-PVTZ-JKFIT
  @DF-RHF Final Energy:  -575.28346535606750
    Total Energy =                       -575.2834653560674951
  Basis Set: (AUG-CC-PVTZ AUX)
    Blend: AUG-CC-PVTZ-RI
    Molecular point group: c1
  Basis Set: AUG-CC-PVTZ
    Blend: AUG-CC-PVTZ
  Basis Set: (AUG-CC-PVTZ AUX)
    Blend: AUG-CC-PVTZ-JKFIT
  Basis Set: (AUG-CC-PVTZ AUX)
    Blend: AUG-CC-PVTZ-JKFIT
	 Reference Energy          =    -575.2834653560674951 [Eh]
	 Singles Energy            =      -0.0000000000000023 [Eh]
	 Same-Spin Energy          =      -0.6083652991226004 [Eh]
	 Opposite-Spin Energy      =      -1.8326030785018230 [Eh]
	 Correlation Energy        =      -2.4409683776244258 [Eh]
	 Total Energy              =    -577.7244337336919671 [Eh]
	 SCS Total Energy          =    -577.6853774833105035 [Eh]
  @DF-RHF Final Energy:  -575.28915930360029
    Total Energy =                       -575.2891593036002860
  @DF-RHF Final Energy:  -575.29049219118895
    Total Energy =                       -575.2904921911889460
  @DF-RHF Final Energy:  -575.29051579664485
    Total Energy =                       -575.2905157966448542
  @DF-RHF Final Energy:  -575.29047895149768
    Total Energy =                       -575.2904789514976756
  Charge       = 0
  Multiplicity = 1
  Basis Set: AUG-CC-PVTZ
    Blend: AUG-CC-PVTZ
  Basis Set: (AUG-CC-PVTZ AUX)
    Blend: AUG-CC-PVTZ-JKFIT

    Orbital Energies (a.u.)
    -----------------------

    Doubly Occupied:

       1A    -26.317876     2A    -15.563826     3A    -11.338521
       4A    -11.273102     5A    -11.272012     6A    -11.269274
       7A    -11.262559     8A    -11.257215     9A    -11.257012
      10A    -11.251437    11A    -11.247769    12A    -11.240148
      13A    -11.238264    14A     -1.636870    15A     -1.260266
      16A     -1.186831    17A     -1.115761    18A     -1.039841
      19A     -1.034397    20A     -1.029478    21A     -0.893192
      22A     -0.873074    23A     -0.847773    24A     -0.827066
      25A     -0.756771    26A     -0.723053    27A     -0.715181
      28A     -0.704808    29A     -0.672454    30A     -0.664555
      31A     -0.653260    32A     -0.626021    33A     -0.612387
      34A     -0.597977    35A     -0.592899    36A     -0.550956
      37A     -0.540124    38A     -0.526810    39A     -0.520065
      40A     -0.510015    41A     -0.419255    42A     -0.405574
      43A     -0.355137    44A     -0.348929    45A     -0.335225

  @DF-RHF Final Energy:  -575.29052414043872

   => Energetics <=

    Nuclear Repulsion Energy =            715.8403969383069807
    One-Electron Energy =               -2203.5317991195142895
    Two-Electron Energy =                 912.4008780407684753
    DFT Exchange-Correlation Energy =       0.0000000000000000
    Empirical Dispersion Energy =           0.0000000000000000
    PCM Polarization Energy =               0.0000000000000000
    EFP Energy =                            0.0000000000000000
    Total Energy =                       -575.2905241404387198
  Basis Set: (AUG-CC-PVTZ AUX)
    Blend: AUG-CC-PVTZ-RI
    Molecular point group: c1
  Basis Set: AUG-CC-PVTZ
    Blend: AUG-CC-PVTZ
  Basis Set: (AUG-CC-PVTZ AUX)
    Blend: AUG-CC-PVTZ-JKFIT
  Basis Set: (AUG-CC-PVTZ AUX)
    Blend: AUG-CC-PVTZ-JKFIT
	 Reference Energy          =    -575.2905241404387198 [Eh]
	 Singles Energy            =      -0.0000000000000010 [Eh]
	 Same-Spin Energy          =      -0.6073425824695867 [Eh]
	 Opposite-Spin Energy      =      -1.8300260364197027 [Eh]
	 Correlation Energy        =      -2.4373686188892902 [Eh]
	 Total Energy              =    -577.7278927593280287 [Eh]

	 ================> DF-SCS-MP2 Energies <==================
	-----------------------------------------------------------
	 SCS Same-Spin Scale       =       0.3333333333333333 [-]
	 SCS Opposite-Spin Scale   =       1.2000000000000000 [-]
	 SCS Same-Spin Energy      =      -0.2024475274898622 [Eh]
	 SCS Opposite-Spin Energy  =      -2.1960312437036431 [Eh]
	 SCS Correlation Energy    =      -2.3984787711935063 [Eh]
	 SCS Total Energy          =    -577.6890029116322012 [Eh]
	-----------------------------------------------------------

  -Total Gradient:
     Atom            X                  Y                   Z
    ------   -----------------  -----------------  -----------------
       1        0.000003794925     0.000049985434     0.000041097377
       2        0.000009277256    -0.000055641550    -0.000032809964
       3       -0.000488227167    -0.000815595555    -0.000039134034
       4       -0.000010096334    -0.000015447044     0.000047243502
       5        0.000054877154     0.000680177261     0.000527886977
       6       -0.000025176877     0.000017608618     0.000040636101
       7        0.000015087991     0.000113921152     0.000108069566
       8       -0.000008575664    -0.000041065533    -0.000037667509
       9        0.000815716925     0.001444053059     0.000349194162
      10       -0.000358765799    -0.001402469992    -0.000907290710
      11        0.000019043430     0.000144883358    -0.000164861946
      12       -0.000013331149    -0.000022528338    -0.000041518255
      13       -0.000012429608    -0.000069915007     0.000121038353
      14       -0.000001095218    -0.000001609037    -0.000006066061
      15       -0.000004478555     0.000001062455    -0.000000212614
      16        0.000013776221    -0.000005089243     0.000005554804
      17        0.000001431120    -0.000001240747     0.000009823516
      18       -0.000000230447    -0.000003345365    -0.000004766654
      19        0.000008319476    -0.000011677446     0.000006250129
      20        0.000002807962    -0.000021400567    -0.000050620750
      21       -0.000021725648     0.000015334089     0.000028154015

  **** Optimization is complete! (in 6 steps) ****
    Final optimized geometry and variables:
    Molecular point group: c1

    Geometry (in Angstrom), charge = 0, multiplicity = 1:

    C           -1.374323050542     0.844701315226    -2.663086081533
    C           -2.455239581011     1.418370442308    -2.007868689601
    C           -0.354398840543     0.260123215509    -1.929860856352
    C           -2.510983400908     1.404869076728    -0.622146147812
    C            2.028446573047    -0.156372123338    -0.113976186172
    C            0.459176483565    -1.254419918415     1.288901669739
    C            3.035518781221    -0.782402928243     0.602969532692
    C            1.532399291942    -1.835899679662     1.944687128818
    C           -0.382672791159     0.232711178000    -0.535168941907
    C            0.699649635094    -0.393997601542     0.222654470641
    C           -1.483190227036     0.813682071296     0.082854979838
    N            2.808912146601    -1.615536825130     1.620714063732
    F           -1.546509274425     0.827177184950     1.428042617767
    H           -1.330326897898     0.845427357494    -3.740641761964
    H           -3.255457301774     1.874577275009    -2.569368631180
    H            0.478875855448    -0.204701205055    -2.435390297361
    H           -3.331917517187     1.846690703960    -0.081140780050
    H            2.274895455258     0.521187183516    -0.917732157643
    H           -0.549496292788    -1.478471383515     1.596961620155
    H            4.071646321848    -0.603705176414     0.351765131799
    H            1.359199223045    -2.512209141955     2.769834250113

*** Psi4 exiting successfully. Buy a developer a beer!
