                              Psi4 1.0.0 Driver

  ==> Input File <==

--------------------------------------------------------------------------

memory 1000 mb

molecule butane {
  symmetry C1
  0 1
  H      1.604   0.760   -8.260
  H      1.745   2.388   -8.880
  H      2.043   1.024   -9.930
  C      2.142   1.395   -8.932
  H      4.169   2.051   -9.210
  H      3.731   1.788   -7.539
  C      3.631   1.416   -8.537
  H      5.269   0.035   -8.685
  H      3.929   -0.553   -7.731
  C      4.203   -0.012   -8.612
  H      4.033   -1.721   -9.902
  H      3.908   -0.189   -10.732
  H      2.568   -0.776   -9.778
  C      3.635   -0.729   -9.850
  units Angstrom
}

dih_string = "4 7 10 14 40"
set optking fixed_dihedral = $dih_string

optimize('MP2/6-31G(d)')
--------------------------------------------------------------------------

    Molecular point group: c1
  Charge       = 0
  Multiplicity = 1
  Basis Set: 6-31G(D)
  Basis Set:
  @DF-RHF Final Energy:  -157.28441129080178
    Total Energy =                       -157.2844112908017280
  Basis Set:
    Molecular point group: c1
  Basis Set: 6-31G(D)
  Basis Set:
  Basis Set:
	 Reference Energy          =    -157.2844112908017848 [Eh]
	 Singles Energy            =      -0.0000000000000000 [Eh]
	 Same-Spin Energy          =      -0.1253835699110889 [Eh]
	 Opposite-Spin Energy      =      -0.4213423314636894 [Eh]
	 Correlation Energy        =      -0.5467259013747783 [Eh]
	 Total Energy              =    -157.8311371921765556 [Eh]
	 SCS Total Energy          =    -157.8318166118619104 [Eh]
  Basis Set: 6-31G(D)
  Basis Set:
  @DF-RHF Final Energy:  -157.29091904447100
    Total Energy =                       -157.2909190444709111
  Basis Set:
  Basis Set: 6-31G(D)
  Basis Set:
  @DF-RHF Final Energy:  -157.29263420188636
    Total Energy =                       -157.2926342018864432
  @DF-RHF Final Energy:  -157.29362325967654
    Total Energy =                       -157.2936232596767354
  @DF-RHF Final Energy:  -157.29396866514304
    Total Energy =                       -157.2939686651427564
  @DF-RHF Final Energy:  -157.29403406117049
    Total Energy =                       -157.2940340611704073
  @DF-RHF Final Energy:  -157.29407931735875
    Total Energy =                       -157.2940793173585803
  @DF-RHF Final Energy:  -157.29408206032522
    Total Energy =                       -157.2940820603253087
  @DF-RHF Final Energy:  -157.29407058800570
    Total Energy =                       -157.2940705880055816
  @DF-RHF Final Energy:  -157.29406980316938
    Total Energy =                       -157.2940698031693785
	 Singles Energy            =      -0.0000000000000000 [Eh]
	 Same-Spin Energy          =      -0.1246726785574340 [Eh]
	 Opposite-Spin Energy      =      -0.4226499431498331 [Eh]
	 Correlation Energy        =      -0.5473226217072671 [Eh]
	 Total Energy              =    -157.8413924248766591 [Eh]
	 SCS Total Energy          =    -157.8428072944683151 [Eh]
  Charge       = 0
  Multiplicity = 1
  Basis Set: 6-31G(D)
  Basis Set:

    Orbital Energies (a.u.)
    -----------------------

    Doubly Occupied:

       1A    -11.216123     2A    -11.215544     3A    -11.209691
       4A    -11.209684     5A     -1.069514     6A     -0.973774
       7A     -0.875784     8A     -0.770010     9A     -0.628825
      10A     -0.617199    11A     -0.568972    12A     -0.536742
      13A     -0.527370    14A     -0.504751    15A     -0.462414
      16A     -0.458242    17A     -0.450784

  @DF-RHF Final Energy:  -157.29406690707322

   => Energetics <=

    Nuclear Repulsion Energy =            133.0722575349767567
    One-Electron Energy =                -474.1418051728921910
    Two-Electron Energy =                 183.7754807308425029
    DFT Exchange-Correlation Energy =       0.0000000000000000
    Empirical Dispersion Energy =           0.0000000000000000
    PCM Polarization Energy =               0.0000000000000000
    EFP Energy =                            0.0000000000000000
    Total Energy =                       -157.2940669070729314
  Basis Set:
    Molecular point group: c1
  Basis Set: 6-31G(D)
  Basis Set:
  Basis Set:
	 Reference Energy          =    -157.2940669070732156 [Eh]
	 Singles Energy            =      -0.0000000000000000 [Eh]
	 Same-Spin Energy          =      -0.1246737319451406 [Eh]
	 Opposite-Spin Energy      =      -0.4226477702301310 [Eh]
	 Correlation Energy        =      -0.5473215021752715 [Eh]
	 Total Energy              =    -157.8413884092484807 [Eh]

	 ================> DF-SCS-MP2 Energies <==================
	-----------------------------------------------------------
	 SCS Same-Spin Scale       =       0.3333333333333333 [-]
	 SCS Opposite-Spin Scale   =       1.2000000000000000 [-]
	 SCS Same-Spin Energy      =      -0.0415579106483802 [Eh]
	 SCS Opposite-Spin Energy  =      -0.5071773242761571 [Eh]
	 SCS Correlation Energy    =      -0.5487352349245374 [Eh]
	 SCS Total Energy          =    -157.8428021419977654 [Eh]
	-----------------------------------------------------------

  -Total Gradient:
     Atom            X                  Y                   Z
    ------   -----------------  -----------------  -----------------
       1        0.000002019343    -0.000002879356    -0.000000759362
       2        0.000003123275    -0.000003426683     0.000002415255
       3        0.000002724063     0.000002702189    -0.000000522550
       4        0.000940981537     0.000707694211    -0.003674271016
       5       -0.000014601659    -0.000000247657    -0.000014127450
       6        0.000016150402     0.000006021282    -0.000009016258
       7       -0.002552063369    -0.001606929037     0.006067186359
       8       -0.000003660959    -0.000002298422     0.000018498428
       9       -0.000014858485    -0.000010525806    -0.000009873960
      10        0.004557141729     0.002329229434    -0.004440263868
      11        0.000001338344     0.000005239019     0.000001439297
      12       -0.000001550249     0.000003129999     0.000001082395
      13        0.000000816497    -0.000001250921     0.000003748429
      14       -0.002937560468    -0.001426458250     0.002054464302

  **** Optimization is complete! (in 11 steps) ****
    Final optimized geometry and variables:
    Molecular point group: c1

    Geometry (in Angstrom), charge = 0, multiplicity = 1:

    H           -1.879913348179     0.286637400123     0.710100243633
    H           -1.655893977275     1.986449816835     0.284700344089
    H           -1.450610074156     0.738097513116    -0.944487464556
    C           -1.278891351733     0.975333654617     0.107295658433
    H            0.754208556846     1.561016747406    -0.196790343784
    H            0.361899862836     1.257870214084     1.483371654520
    C            0.201047442193     0.883720900035     0.466388070506
    H            1.895906656809    -0.444386685461     0.348812530082
    H            0.539678142358    -1.094830374345     1.246765974958
    C            0.803154366998    -0.521907044808     0.348511291797
    H            0.862819161035    -2.272194018634    -0.928269551886
    H            0.537439316197    -0.770331742469    -1.799505400630
    H           -0.731437394377    -1.524288291160    -0.826220894238
    C            0.339014235392    -1.313970942192    -0.869996158695

*** Psi4 exiting successfully. Buy a developer a beer!
