                               Psi4 1.1 release

  ==> Input File <==

--------------------------------------------------------------------------

memory 5 Gb

molecule phepyrFOH_neutral {
  symmetry C1
  0 1
  C      1.885   -1.036   -0.112
  C      0.807   -0.463   0.561
  C      4.079   -2.203   -1.484
  C      5.074   -2.818   0.617
  C      1.800   -1.079   2.676
  C      5.171   -2.784   -2.110
  C      6.121   -3.371   -0.102
  C      2.921   -1.631   0.608
  C      4.038   -2.225   -0.095
  C      0.764   -0.484   1.955
  C      2.878   -1.652   2.002
  N      6.196   -3.370   -1.452
  O      -0.289   0.076   2.612
  F      3.866   -2.220   2.709
  H      1.904   -1.012   -1.199
  H      0.002   -0.002   -0.006
  H      3.290   -1.749   -2.074
  H      5.076   -2.854   1.702
  H      1.772   -1.099   3.762
  H      5.251   -2.792   -3.192
  H      6.954   -3.847   0.406
  H      -0.175   -0.018   3.571
  units Angstrom
}

dih_string = "1 8 9 3 0.001"
set optking fixed_dihedral = $dih_string

optimize('MP2/aug-cc-PVTZ')
--------------------------------------------------------------------------

    Molecular point group: c1
  Charge       = 0
  Multiplicity = 1
  Basis Set: AUG-CC-PVTZ
    Blend: AUG-CC-PVTZ
  Basis Set: (AUG-CC-PVTZ AUX)
    Blend: AUG-CC-PVTZ-JKFIT
  @DF-RHF Final Energy:  -650.15509017113288
    Total Energy =                       -650.1550901711327697
  Basis Set: (AUG-CC-PVTZ AUX)
    Blend: AUG-CC-PVTZ-RI
    Molecular point group: c1
  Basis Set: AUG-CC-PVTZ
    Blend: AUG-CC-PVTZ
  Basis Set: (AUG-CC-PVTZ AUX)
    Blend: AUG-CC-PVTZ-JKFIT
  Basis Set: (AUG-CC-PVTZ AUX)
    Blend: AUG-CC-PVTZ-JKFIT
	 Reference Energy          =    -650.1550901711328834 [Eh]
	 Singles Energy            =      -0.0000000000000002 [Eh]
	 Same-Spin Energy          =      -0.6799905365516701 [Eh]
	 Opposite-Spin Energy      =      -2.0231352048336291 [Eh]
	 Correlation Energy        =      -2.7031257413852989 [Eh]
	 Total Energy              =    -652.8582159125181761 [Eh]
	 SCS Total Energy          =    -652.8095159291170830 [Eh]
  @DF-RHF Final Energy:  -650.16498082430121
    Total Energy =                       -650.1649808243012103
  @DF-RHF Final Energy:  -650.17075807634353
    Total Energy =                       -650.1707580763436454
  @DF-RHF Final Energy:  -650.17377354782866
    Total Energy =                       -650.1737735478286595
  @DF-RHF Final Energy:  -650.17534897588007
    Total Energy =                       -650.1753489758800697
  @DF-RHF Final Energy:  -650.17621794068600
    Total Energy =                       -650.1762179406860014
  @DF-RHF Final Energy:  -650.17671315895143
    Total Energy =                       -650.1767131589515429
  @DF-RHF Final Energy:  -650.17684544236488
    Total Energy =                       -650.1768454423647654
  Charge       = 0
  Multiplicity = 1
  Basis Set: AUG-CC-PVTZ
    Blend: AUG-CC-PVTZ
  Basis Set: (AUG-CC-PVTZ AUX)
    Blend: AUG-CC-PVTZ-JKFIT

    Orbital Energies (a.u.)
    -----------------------

    Doubly Occupied:

       1A    -26.327205     2A    -20.614953     3A    -15.559496
       4A    -11.352412     5A    -11.330193     6A    -11.273947
       7A    -11.270006     8A    -11.268651     9A    -11.264944
      10A    -11.261875    11A    -11.252118    12A    -11.243219
      13A    -11.236819    14A    -11.231642    15A     -1.646713
      16A     -1.432924    17A     -1.257556    18A     -1.187063
      19A     -1.112340    20A     -1.046562    21A     -1.031876
      22A     -1.027188    23A     -0.897737    24A     -0.882239
      25A     -0.851334    26A     -0.833418    27A     -0.776304
      28A     -0.752073    29A     -0.726192    30A     -0.712755
      31A     -0.700779    32A     -0.676569    33A     -0.658522
      34A     -0.638085    35A     -0.634377    36A     -0.615353
      37A     -0.614220    38A     -0.591026    39A     -0.583325
      40A     -0.550916    41A     -0.549271    42A     -0.540821
      43A     -0.508331    44A     -0.503937    45A     -0.417115
      46A     -0.409919    47A     -0.363450    48A     -0.345973
      49A     -0.314310

  @DF-RHF Final Energy:  -650.17690206190105

   => Energetics <=

    Nuclear Repulsion Energy =            812.2836184619633286
    One-Electron Energy =               -2499.1649258083625682
    Two-Electron Energy =                1036.7044052844983071
    DFT Exchange-Correlation Energy =       0.0000000000000000
    Empirical Dispersion Energy =           0.0000000000000000
    PCM Polarization Energy =               0.0000000000000000
    EFP Energy =                            0.0000000000000000
    Total Energy =                       -650.1769020619010462
  Basis Set: (AUG-CC-PVTZ AUX)
    Blend: AUG-CC-PVTZ-RI
    Molecular point group: c1
  Basis Set: AUG-CC-PVTZ
    Blend: AUG-CC-PVTZ
  Basis Set: (AUG-CC-PVTZ AUX)
    Blend: AUG-CC-PVTZ-JKFIT
  Basis Set: (AUG-CC-PVTZ AUX)
    Blend: AUG-CC-PVTZ-JKFIT
	 Reference Energy          =    -650.1769020619010462 [Eh]
	 Singles Energy            =      -0.0000000000000000 [Eh]
	 Same-Spin Energy          =      -0.6772822936552514 [Eh]
	 Opposite-Spin Energy      =      -2.0186646826643178 [Eh]
	 Correlation Energy        =      -2.6959469763195694 [Eh]
	 Total Energy              =    -652.8728490382205791 [Eh]

	 ================> DF-SCS-MP2 Energies <==================
	-----------------------------------------------------------
	 SCS Same-Spin Scale       =       0.3333333333333333 [-]
	 SCS Opposite-Spin Scale   =       1.2000000000000000 [-]
	 SCS Same-Spin Energy      =      -0.2257607645517505 [Eh]
	 SCS Opposite-Spin Energy  =      -2.4223976191971812 [Eh]
	 SCS Correlation Energy    =      -2.6481583837489318 [Eh]
	 SCS Total Energy          =    -652.8250604456500241 [Eh]
	-----------------------------------------------------------

  -Total Gradient:
     Atom            X                  Y                   Z
    ------   -----------------  -----------------  -----------------
       1       -0.000068935747     0.000038995893    -0.000017677222
       2        0.000059394519    -0.000028761188    -0.000052518207
       3        0.000053554204    -0.000021970152    -0.000109496211
       4       -0.000040043511     0.000029751679    -0.000048826574
       5       -0.000062241697     0.000033187958     0.000069875163
       6       -0.000102953012     0.000056229735    -0.000006146301
       7        0.000028335703    -0.000017624387    -0.000074936765
       8        0.000134492218    -0.000075674593    -0.000021957396
       9       -0.000040302791     0.000008912278     0.000168746582
      10        0.000016874370    -0.000009223957     0.000029864222
      11       -0.000135621798     0.000079765557    -0.000182959398
      12        0.000055168554    -0.000030146694     0.000069723866
      13       -0.000010063630     0.000005416979    -0.000020346259
      14        0.000120058307    -0.000067733358     0.000096771758
      15        0.000002090411    -0.000001587006     0.000003858066
      16       -0.000020631969     0.000010764345     0.000021599049
      17       -0.000001916042     0.000000113572     0.000010623616
      18       -0.000021371562     0.000009289399     0.000039526427
      19        0.000035062692    -0.000019534993    -0.000006020242
      20        0.000005853630    -0.000003481463     0.000001497512
      21       -0.000005523780     0.000003472982     0.000017633061
      22       -0.000001279099    -0.000000162583     0.000011165251

  **** Optimization is complete! (in 9 steps) ****
    Final optimized geometry and variables:
    Molecular point group: c1

    Geometry (in Angstrom), charge = 0, multiplicity = 1:

    C           -1.310200597117     0.745757607807    -0.729050704196
    C           -2.396659680020     1.324882048113    -0.107008998173
    C            0.924345463079    -0.440369274553    -2.158776122095
    C            1.963793472689    -1.078342129318    -0.138486087007
    C           -1.458375512280     0.739664962338     2.007085824962
    C            1.990568890837    -1.006481653840    -2.834273240688
    C            2.987960902294    -1.618479177193    -0.901185512609
    C           -0.251685181869     0.139906189536    -0.037897917975
    C            0.877649991501    -0.459515919047    -0.762156002397
    C           -2.477705078580     1.325113443446     1.277764416042
    C           -0.386638779878     0.169843949934     1.348750644410
    N            3.026354894758    -1.596819963809    -2.233367285449
    O           -3.563389616557     1.905331017959     1.850799713418
    F            0.553010868246    -0.373933716963     2.149934922145
    H           -1.289735988977     0.768981027993    -1.804441789263
    H           -3.186761198911     1.779049441490    -0.683624727654
    H            0.142047777778     0.009762248675    -2.745381188318
    H            2.028432423467    -1.148339883788     0.930202339235
    H           -1.469764334736     0.711314178464     3.086164030614
    H            2.012302653858    -0.983728089496    -3.915202197737
    H            3.822869601170    -2.094665522142    -0.406150075192
    H           -3.493299585486     1.835918078322     2.807897961731

*** Psi4 exiting successfully. Buy a developer a beer!
