                               Psi4 1.1 release

  ==> Input File <==

--------------------------------------------------------------------------

memory 5 Gb

molecule phepyrFOH_anion {
  symmetry C1
  -1 1
  C      1.885   -1.036   -0.112
  C      0.807   -0.463   0.561
  C      3.815   -3.037   -1.201
  C      5.339   -1.983   0.332
  C      1.800   -1.079   2.676
  C      4.918   -3.579   -1.840
  C      6.374   -2.573   -0.375
  C      2.921   -1.631   0.608
  C      4.038   -2.224   -0.095
  C      0.764   -0.484   1.955
  C      2.878   -1.652   2.002
  N      6.196   -3.368   -1.454
  O      -0.227   0.043   2.574
  F      3.866   -2.220   2.709
  H      1.904   -1.013   -1.200
  H      0.011   -0.007   -0.025
  H      2.814   -3.247   -1.565
  H      5.551   -1.355   1.191
  H      1.791   -1.109   3.764
  H      4.798   -4.218   -2.709
  H      7.406   -2.417   -0.082
  units Angstrom
}

dih_string = "1 8 9 3 315"
set optking fixed_dihedral = $dih_string

optimize('MP2/aug-cc-PVTZ')
--------------------------------------------------------------------------

    Molecular point group: c1
  Charge       = -1
  Multiplicity = 1
  Basis Set: AUG-CC-PVTZ
    Blend: AUG-CC-PVTZ
  Basis Set: (AUG-CC-PVTZ AUX)
    Blend: AUG-CC-PVTZ-JKFIT
  @DF-RHF Final Energy:  -649.61053135116970
    Total Energy =                       -649.6105313511695840
  Basis Set: (AUG-CC-PVTZ AUX)
    Blend: AUG-CC-PVTZ-RI
    Molecular point group: c1
  Basis Set: AUG-CC-PVTZ
    Blend: AUG-CC-PVTZ
  Basis Set: (AUG-CC-PVTZ AUX)
    Blend: AUG-CC-PVTZ-JKFIT
  Basis Set: (AUG-CC-PVTZ AUX)
    Blend: AUG-CC-PVTZ-JKFIT
	 Reference Energy          =    -649.6105313511696977 [Eh]
	 Singles Energy            =      -0.0000000000000001 [Eh]
	 Same-Spin Energy          =      -0.6862519775187370 [Eh]
	 Opposite-Spin Energy      =      -2.0262528712420678 [Eh]
	 Correlation Energy        =      -2.7125048487608048 [Eh]
	 Total Energy              =    -652.3230361999304705 [Eh]
	 SCS Total Energy          =    -652.2707854558331064 [Eh]
  @DF-RHF Final Energy:  -649.61774204071980
    Total Energy =                       -649.6177420407198042
  @DF-RHF Final Energy:  -649.62232817543736
    Total Energy =                       -649.6223281754373602
  @DF-RHF Final Energy:  -649.62431870798650
    Total Energy =                       -649.6243187079865038
  @DF-RHF Final Energy:  -649.62472616910281
    Total Energy =                       -649.6247261691028143
  @DF-RHF Final Energy:  -649.62481371623130
    Total Energy =                       -649.6248137162313014
  @DF-RHF Final Energy:  -649.62484046510951
    Total Energy =                       -649.6248404651094006
  @DF-RHF Final Energy:  -649.62484983357342
    Total Energy =                       -649.6248498335735349
  @DF-RHF Final Energy:  -649.62482741077190
    Total Energy =                       -649.6248274107720135
  @DF-RHF Final Energy:  -649.62484121226271
    Total Energy =                       -649.6248412122627087
  @DF-RHF Final Energy:  -649.62482389423008
    Total Energy =                       -649.6248238942300759
  @DF-RHF Final Energy:  -649.62482087854914
    Total Energy =                       -649.6248208785491443
  @DF-RHF Final Energy:  -649.62481590814969
    Total Energy =                       -649.6248159081496851
  Charge       = -1
  Multiplicity = 1
  Basis Set: AUG-CC-PVTZ
    Blend: AUG-CC-PVTZ
  Basis Set: (AUG-CC-PVTZ AUX)
    Blend: AUG-CC-PVTZ-JKFIT

    Orbital Energies (a.u.)
    -----------------------

    Doubly Occupied:

       1A    -26.176414     2A    -20.326345     3A    -15.451142
       4A    -11.191693     5A    -11.165252     6A    -11.163883
       7A    -11.151113     8A    -11.143732     9A    -11.120707
      10A    -11.118319    11A    -11.111213    12A    -11.085897
      13A    -11.067614    14A    -11.067082    15A     -1.488233
      16A     -1.158551    17A     -1.147160    18A     -1.024380
      19A     -0.967523    20A     -0.922102    21A     -0.876179
      22A     -0.851164    23A     -0.747852    24A     -0.741481
      25A     -0.695342    26A     -0.674260    27A     -0.608807
      28A     -0.575379    29A     -0.566840    30A     -0.557395
      31A     -0.545293    32A     -0.530483    33A     -0.508300
      34A     -0.483912    35A     -0.477282    36A     -0.455473
      37A     -0.434889    38A     -0.433353    39A     -0.404955
      40A     -0.388974    41A     -0.386128    42A     -0.368153
      43A     -0.319399    44A     -0.311938    45A     -0.256370
      46A     -0.240620    47A     -0.234882    48A     -0.207914
      49A     -0.119816

  @DF-RHF Final Energy:  -649.62482951658194

   => Energetics <=

    Nuclear Repulsion Energy =            797.3884443524987091
    One-Electron Energy =               -2483.9241698840210120
    Two-Electron Energy =                1036.9108960149403629
    DFT Exchange-Correlation Energy =       0.0000000000000000
    Empirical Dispersion Energy =           0.0000000000000000
    PCM Polarization Energy =               0.0000000000000000
    EFP Energy =                            0.0000000000000000
    Total Energy =                       -649.6248295165819400
  Basis Set: (AUG-CC-PVTZ AUX)
    Blend: AUG-CC-PVTZ-RI
    Molecular point group: c1
  Basis Set: AUG-CC-PVTZ
    Blend: AUG-CC-PVTZ
  Basis Set: (AUG-CC-PVTZ AUX)
    Blend: AUG-CC-PVTZ-JKFIT
  Basis Set: (AUG-CC-PVTZ AUX)
    Blend: AUG-CC-PVTZ-JKFIT
	 Reference Energy          =    -649.6248295165819400 [Eh]
	 Singles Energy            =      -0.0000000000000003 [Eh]
	 Same-Spin Energy          =      -0.6847407518089619 [Eh]
	 Opposite-Spin Energy      =      -2.0248277896626288 [Eh]
	 Correlation Energy        =      -2.7095685414715911 [Eh]
	 Total Energy              =    -652.3343980580535799 [Eh]

	 ================> DF-SCS-MP2 Energies <==================
	-----------------------------------------------------------
	 SCS Same-Spin Scale       =       0.3333333333333333 [-]
	 SCS Opposite-Spin Scale   =       1.2000000000000000 [-]
	 SCS Same-Spin Energy      =      -0.2282469172696540 [Eh]
	 SCS Opposite-Spin Energy  =      -2.4297933475951545 [Eh]
	 SCS Correlation Energy    =      -2.6580402648648089 [Eh]
	 SCS Total Energy          =    -652.2828697814467205 [Eh]
	-----------------------------------------------------------

  -Total Gradient:
     Atom            X                  Y                   Z
    ------   -----------------  -----------------  -----------------
       1        0.002029723462     0.003942985173     0.000247667970
       2       -0.000010207534    -0.000006259989     0.000001457910
       3       -0.000151882156    -0.003647980466     0.002544950083
       4       -0.000012294651    -0.000006731408     0.000016858882
       5       -0.000028004441    -0.000023218193    -0.000005105130
       6       -0.000015476209    -0.000075823201     0.000053758980
       7       -0.000000788649     0.000066355004    -0.000046436124
       8       -0.003136626455    -0.007803248769     0.000937515204
       9        0.001244193969     0.007506701030    -0.003700785558
      10        0.000050757066     0.000025947413    -0.000006310832
      11        0.000045281232     0.000056983646    -0.000007406815
      12        0.000009297440     0.000008515132    -0.000003252753
      13       -0.000018813211    -0.000014939385     0.000004723768
      14       -0.000016105197    -0.000020979165    -0.000021397470
      15       -0.000005309615    -0.000003244858    -0.000001987453
      16        0.000001885725    -0.000001514338    -0.000002386987
      17       -0.000002346910     0.000003526453    -0.000011716882
      18        0.000008560833    -0.000005740268     0.000001774253
      19        0.000003985771     0.000000092727    -0.000000620042
      20        0.000002694855     0.000025555066    -0.000018819483
      21        0.000001474677    -0.000026981597     0.000017518474

  **** Optimization is complete! (in 14 steps) ****
    Final optimized geometry and variables:
    Molecular point group: c1

    Geometry (in Angstrom), charge = -1, multiplicity = 1:

    C           -1.389192218961     0.689769414212    -0.739501914432
    C           -2.443611631085     1.298166246996    -0.101789321152
    C            0.653335157814    -1.234442431168    -1.904865736181
    C            2.143665177764    -0.271488203504    -0.346418805935
    C           -1.433036939258     0.775688764829     2.014761556601
    C            1.752340464525    -1.742000495199    -2.574489899400
    C            3.180636332877    -0.828097449768    -1.074090287179
    C           -0.316802595955     0.093576725375    -0.050994761993
    C            0.818516544986    -0.446233226382    -0.760258913503
    C           -2.542924851704     1.374570307782     1.329423731953
    C           -0.394667361321     0.198897459967     1.338272765628
    N            3.019653450978    -1.557634533653    -2.185272333512
    O           -3.508623646543     1.918395567016     1.931169477726
    F            0.614387678818    -0.359201278217     2.081152882298
    H           -1.356499748560     0.687751404668    -1.822186825761
    H           -3.234938006229     1.756991425744    -0.677684568959
    H           -0.342423831087    -1.453123328736    -2.261954508599
    H            2.358602477811     0.311337127744     0.534850479581
    H           -1.427116019473     0.776925471769     3.093901274302
    H            1.609950981277    -2.344913521550    -3.462439791870
    H            4.202483475505    -0.677132406822    -0.750179145779

*** Psi4 exiting successfully. Buy a developer a beer!
