 Gaussian 09, Revision B.01,
 Gaussian 09:  EM64L-G09RevB.01 12-Aug-2010

 ------------------------------------------------------
 # opt=modredundant B3LYP/cc-pVDZ Geom=PrintInputOrient
 ------------------------------------------------------

 -------------------------------
 PRL Dihedral Scan at MP2/6-31G*
 -------------------------------
 Symbolic Z-matrix:
 Charge =  0 Multiplicity = 1

 SCF Done:  E(RB3LYP) =  -367.407838485     A.U. after   14 cycles
 SCF Done:  E(RB3LYP) =  -367.407841377     A.U. after    7 cycles
 Optimization completed.
    -- Stationary point found.
 SCF Done:  E(RB3LYP) =  -367.405385788     A.U. after   12 cycles
 SCF Done:  E(RB3LYP) =  -367.407345090     A.U. after   11 cycles
 SCF Done:  E(RB3LYP) =  -367.407533824     A.U. after   10 cycles
 SCF Done:  E(RB3LYP) =  -367.407568905     A.U. after   10 cycles
 SCF Done:  E(RB3LYP) =  -367.407592829     A.U. after   10 cycles
 SCF Done:  E(RB3LYP) =  -367.407602434     A.U. after   10 cycles
 SCF Done:  E(RB3LYP) =  -367.407604675     A.U. after    8 cycles
 SCF Done:  E(RB3LYP) =  -367.407605135     A.U. after    7 cycles
 Optimization completed.
 SCF Done:  E(RB3LYP) =  -367.405803798     A.U. after   11 cycles
 SCF Done:  E(RB3LYP) =  -367.405842398     A.U. after   10 cycles
 SCF Done:  E(RB3LYP) =  -367.405843963     A.U. after    8 cycles
 SCF Done:  E(RB3LYP) =  -367.405844197     A.U. after    8 cycles
 SCF Done:  E(RB3LYP) =  -367.405844244     A.U. after    6 cycles
    -- Stationary point found.
 SCF Done:  E(RB3LYP) =  -367.403797617     A.U. after   12 cycles
 SCF Done:  E(RB3LYP) =  -367.405824743     A.U. after   15 cycles
 SCF Done:  E(RB3LYP) =  -367.405874940     A.U. after   15 cycles
 SCF Done:  E(RB3LYP) =  -367.405876254     A.U. after    8 cycles
 SCF Done:  E(RB3LYP) =  -367.405876409     A.U. after    7 cycles
 Optimization completed.
    -- Stationary point found.

                         Standard orientation:
 ---------------------------------------------------------------------
 Center     Atomic      Atomic             Coordinates (Angstroms)
 Number     Number       Type             X           Y           Z
 ---------------------------------------------------------------------
      1          6           0       -2.576630   -0.174135   -0.009966
      2          6           0       -1.368166    0.760837   -0.008896
      3          7           0       -0.228463   -0.053113   -0.015794
      4          6           0       -0.609432   -1.401869    0.009224
      5          6           0       -1.945303   -1.549166    0.013117
      6          6           0        1.112174    0.496885    0.021033
      7          6           0        2.231307   -0.542378   -0.016886
      8          6           0        3.612462    0.117462    0.000174
      9          6           0       -1.373608    2.108901    0.003351
     10          1           0       -3.202581   -0.010051   -0.905376
     11          1           0       -3.224940    0.015043    0.863702
     12          1           0        0.152520   -2.177382    0.016311
     13          1           0       -2.484211   -2.493042    0.019331
     14          1           0        1.230455    1.190191   -0.834987
     15          1           0        1.220857    1.120721    0.931445
     16          1           0        2.139129   -1.222834    0.847425
     17          1           0        2.130020   -1.164208   -0.923416
     18          1           0        4.412675   -0.638357   -0.023427
     19          1           0        3.752178    0.779759   -0.870489
     20          1           0        3.755086    0.726978    0.908175
     21          1           0       -0.457249    2.698588    0.007425
     22          1           0       -2.321514    2.647153    0.007533
 ---------------------------------------------------------------------

 The electronic state is 1-A.
 Alpha  occ. eigenvalues --  -14.35063 -10.22458 -10.21488 -10.21360 -10.19889
 Alpha  occ. eigenvalues --  -10.19014 -10.18967 -10.16661 -10.15175  -0.96478
 Alpha  occ. eigenvalues --   -0.81288  -0.76528  -0.75344  -0.68270  -0.65172
 Alpha  occ. eigenvalues --   -0.60926  -0.57128  -0.52581  -0.49734  -0.48386
 Alpha  occ. eigenvalues --   -0.44420  -0.43731  -0.43042  -0.40524  -0.39851
 Alpha  occ. eigenvalues --   -0.39386  -0.38504  -0.35956  -0.35067  -0.35012
 Alpha  occ. eigenvalues --   -0.33679  -0.32178  -0.25845  -0.17080
 Alpha virt. eigenvalues --    0.01271   0.05262   0.06539   0.07751   0.08023
 Alpha virt. eigenvalues --    0.10109   0.10153   0.11087   0.12521   0.13284
 Alpha virt. eigenvalues --    0.14508   0.14868   0.15216   0.16223   0.16320

 Mulliken atomic charges:
              1
     1  C    0.095943
     2  C   -0.028642
     3  N   -0.246185
     4  C    0.149257
     5  C   -0.140035
     6  C    0.114832
     7  C   -0.088855
     8  C    0.003159
     9  C   -0.035368
    10  H    0.043441
    11  H    0.042736
    12  H   -0.009262
    13  H   -0.034844
    14  H    0.020351
    15  H    0.017911
    16  H    0.024483
    17  H    0.023786
    18  H    0.018493
    19  H    0.023706
    20  H    0.023843
    21  H   -0.007876
    22  H   -0.010871
 Sum of Mulliken atomic charges =   0.00000

 Dipole moment (field-independent basis, Debye):
    X=              1.3769    Y=             -0.8835    Z=              0.0047  Tot=              1.6359
 Quadrupole moment (field-independent basis, Debye-Ang):
   XX=            -52.1871   YY=            -56.8808   ZZ=            -58.7266
   XY=              0.4495   XZ=              0.0237   YZ=             -0.0233

 Normal termination of Gaussian 09 at Sun Mar 22 18:17:40 2015.
