 Gaussian 09, Revision B.01,
 Gaussian 09:  EM64L-G09RevB.01 12-Aug-2010

 ------------------------------------------------------
 # opt=modredundant B3LYP/cc-pVDZ Geom=PrintInputOrient
 ------------------------------------------------------

 -------------------------------
 PRL Dihedral Scan at MP2/6-31G*
 -------------------------------
 Symbolic Z-matrix:
 Charge =  0 Multiplicity = 1

 SCF Done:  E(RB3LYP) =  -367.407838485     A.U. after   14 cycles
 SCF Done:  E(RB3LYP) =  -367.407841342     A.U. after    8 cycles
 Optimization completed.
    -- Stationary point found.
 SCF Done:  E(RB3LYP) =  -367.404901640     A.U. after   12 cycles
 SCF Done:  E(RB3LYP) =  -367.406958426     A.U. after   12 cycles
 SCF Done:  E(RB3LYP) =  -367.407132163     A.U. after   10 cycles
 SCF Done:  E(RB3LYP) =  -367.407154091     A.U. after   10 cycles
 SCF Done:  E(RB3LYP) =  -367.407169912     A.U. after   10 cycles
 SCF Done:  E(RB3LYP) =  -367.407187993     A.U. after   10 cycles
 SCF Done:  E(RB3LYP) =  -367.407195758     A.U. after   10 cycles
 SCF Done:  E(RB3LYP) =  -367.407196477     A.U. after    8 cycles
 Optimization completed.
 SCF Done:  E(RB3LYP) =  -367.396480604     A.U. after   10 cycles
 SCF Done:  E(RB3LYP) =  -367.396481345     A.U. after    7 cycles
 SCF Done:  E(RB3LYP) =  -367.396481334     A.U. after    7 cycles
    -- Stationary point found.
 SCF Done:  E(RB3LYP) =  -367.394136035     A.U. after   11 cycles
 SCF Done:  E(RB3LYP) =  -367.396347806     A.U. after   11 cycles
 SCF Done:  E(RB3LYP) =  -367.396526162     A.U. after   11 cycles
 SCF Done:  E(RB3LYP) =  -367.396571187     A.U. after   15 cycles
 SCF Done:  E(RB3LYP) =  -367.396576728     A.U. after   10 cycles
 SCF Done:  E(RB3LYP) =  -367.396577028     A.U. after    8 cycles
 SCF Done:  E(RB3LYP) =  -367.396577118     A.U. after    7 cycles
 Optimization completed.
    -- Stationary point found.

                         Standard orientation:
 ---------------------------------------------------------------------
 Center     Atomic      Atomic             Coordinates (Angstroms)
 Number     Number       Type             X           Y           Z
 ---------------------------------------------------------------------
      1          6           0       -2.472298    0.490762    0.096141
      2          6           0       -0.978439    0.823121   -0.022682
      3          7           0       -0.305640   -0.411754   -0.077543
      4          6           0       -1.245475   -1.455237   -0.028481
      5          6           0       -2.509027   -1.017726    0.067886
      6          6           0        1.113866   -0.760393   -0.139835
      7          6           0        2.139600    0.355712    0.053851
      8          6           0        3.558067   -0.219754    0.101987
      9          6           0       -0.502225    2.083843   -0.077067
     10          1           0       -3.039523    0.948023   -0.733327
     11          1           0       -2.893059    0.905968    1.029600
     12          1           0       -0.880937   -2.481603   -0.070555
     13          1           0       -3.402364   -1.634370    0.124773
     14          1           0        1.297224   -1.530834    0.633159
     15          1           0        1.318327   -1.251907   -1.113212
     16          1           0        2.069238    1.079928   -0.772130
     17          1           0        1.927492    0.904083    0.985415
     18          1           0        4.305501    0.581332    0.210458
     19          1           0        3.684422   -0.912445    0.951205
     20          1           0        3.798233   -0.776864   -0.819709
     21          1           0        0.546737    2.342538   -0.173737
     22          1           0       -1.216228    2.906465   -0.019953
 ---------------------------------------------------------------------

 The electronic state is 1-A.
 Alpha  occ. eigenvalues --  -14.35066 -10.22755 -10.21932 -10.21155 -10.19305
 Alpha  occ. eigenvalues --  -10.18952 -10.18718 -10.16837 -10.14779  -0.96035
 Alpha  occ. eigenvalues --   -0.81108  -0.76558  -0.75118  -0.68156  -0.65021
 Alpha  occ. eigenvalues --   -0.61003  -0.56567  -0.53133  -0.49314  -0.48193
 Alpha  occ. eigenvalues --   -0.43736  -0.43501  -0.42652  -0.41311  -0.40446
 Alpha  occ. eigenvalues --   -0.39402  -0.37332  -0.36226  -0.35098  -0.34815
 Alpha  occ. eigenvalues --   -0.32780  -0.31976  -0.25966  -0.16874
 Alpha virt. eigenvalues --    0.01302   0.05379   0.05857   0.07307   0.08674
 Alpha virt. eigenvalues --    0.09841   0.10500   0.10817   0.12513   0.13276
 Alpha virt. eigenvalues --    0.14650   0.15023   0.15652   0.15982   0.17519

 Mulliken atomic charges:
              1
     1  C    0.088912
     2  C   -0.018427
     3  N   -0.254940
     4  C    0.150761
     5  C   -0.132730
     6  C    0.101897
     7  C   -0.076384
     8  C   -0.000001
     9  C   -0.029083
    10  H    0.043364
    11  H    0.043640
    12  H   -0.019033
    13  H   -0.033300
    14  H    0.013732
    15  H    0.014427
    16  H    0.039790
    17  H    0.032652
    18  H    0.018020
    19  H    0.020073
    20  H    0.019397
    21  H   -0.008287
    22  H   -0.014478
 Sum of Mulliken atomic charges =   0.00000

 Dipole moment (field-independent basis, Debye):
    X=              0.9095    Y=             -1.1210    Z=              0.0670  Tot=              1.4451
 Quadrupole moment (field-independent basis, Debye-Ang):
   XX=            -52.4421   YY=            -55.9218   ZZ=            -58.6505
   XY=             -0.3684   XZ=             -0.4231   YZ=              0.1281

 Normal termination of Gaussian 09 at Mon Mar 23 15:43:34 2015.
