 Gaussian 09, Revision B.01,
 Gaussian 09:  EM64L-G09RevB.01 12-Aug-2010

 ------------------------------------------------------
 # opt=modredundant B3LYP/cc-pVDZ Geom=PrintInputOrient
 ------------------------------------------------------

 -------------------------------
 PRL Dihedral Scan at MP2/6-31G*
 -------------------------------
 Symbolic Z-matrix:
 Charge =  0 Multiplicity = 1

 SCF Done:  E(RB3LYP) =  -367.407838485     A.U. after   14 cycles
 SCF Done:  E(RB3LYP) =  -367.407841388     A.U. after    7 cycles
 Optimization completed.
    -- Stationary point found.
 SCF Done:  E(RB3LYP) =  -367.406272839     A.U. after   12 cycles
 SCF Done:  E(RB3LYP) =  -367.407238618     A.U. after   11 cycles
 SCF Done:  E(RB3LYP) =  -367.407374328     A.U. after   10 cycles
 SCF Done:  E(RB3LYP) =  -367.407414534     A.U. after   10 cycles
 SCF Done:  E(RB3LYP) =  -367.407437715     A.U. after   10 cycles
 SCF Done:  E(RB3LYP) =  -367.407445493     A.U. after    9 cycles
 SCF Done:  E(RB3LYP) =  -367.407447101     A.U. after    7 cycles
 Optimization completed.
 SCF Done:  E(RB3LYP) =  -367.404150761     A.U. after   13 cycles
 SCF Done:  E(RB3LYP) =  -367.391170571     A.U. after   14 cycles
 SCF Done:  E(RB3LYP) =  -367.394582073     A.U. after   12 cycles
 SCF Done:  E(RB3LYP) =  -367.394692485     A.U. after   11 cycles
 SCF Done:  E(RB3LYP) =  -367.394698187     A.U. after    9 cycles
 SCF Done:  E(RB3LYP) =  -367.394698190     A.U. after    7 cycles
    -- Stationary point found.
 SCF Done:  E(RB3LYP) =  -367.385332915     A.U. after   14 cycles
 SCF Done:  E(RB3LYP) =  -367.389093083     A.U. after   12 cycles
 SCF Done:  E(RB3LYP) =  -367.389201958     A.U. after   10 cycles
 SCF Done:  E(RB3LYP) =  -367.389205386     A.U. after    8 cycles
 SCF Done:  E(RB3LYP) =  -367.389205695     A.U. after    7 cycles
 Optimization completed.
    -- Stationary point found.

                         Standard orientation:
 ---------------------------------------------------------------------
 Center     Atomic      Atomic             Coordinates (Angstroms)
 Number     Number       Type             X           Y           Z
 ---------------------------------------------------------------------
      1          6           0        1.711389   -0.360682    1.044281
      2          6           0        1.187162    0.723531    0.109336
      3          7           0        0.368529    0.111729   -0.924760
      4          6           0        0.723766   -1.272651   -0.857311
      5          6           0        1.499092   -1.592710    0.187942
      6          6           0       -1.098896    0.302022   -0.818894
      7          6           0       -1.755175   -0.091195    0.511401
      8          6           0       -3.274324    0.093011    0.475171
      9          6           0        1.706364    1.948866   -0.028154
     10          1           0        1.146323   -0.437456    1.995521
     11          1           0        2.762799   -0.171842    1.310463
     12          1           0        0.338788   -1.937184   -1.633226
     13          1           0        1.902603   -2.580982    0.404408
     14          1           0       -1.313161    1.362701   -1.034564
     15          1           0       -1.550857   -0.277499   -1.643198
     16          1           0       -1.509909   -1.140790    0.748063
     17          1           0       -1.326459    0.524921    1.321242
     18          1           0       -3.734849   -0.181505    1.437506
     19          1           0       -3.548737    1.140369    0.262095
     20          1           0       -3.737308   -0.534574   -0.305706
     21          1           0        1.395549    2.601532   -0.846848
     22          1           0        2.399244    2.349050    0.714934
 ---------------------------------------------------------------------

 The electronic state is 1-A.
 Alpha  occ. eigenvalues --  -14.33423 -10.21552 -10.21404 -10.20717 -10.19276
 Alpha  occ. eigenvalues --  -10.18365 -10.18237 -10.17749 -10.17207  -0.94780
 Alpha  occ. eigenvalues --   -0.79957  -0.76046  -0.75432  -0.67739  -0.65010
 Alpha  occ. eigenvalues --   -0.59698  -0.56662  -0.52111  -0.48978  -0.46455
 Alpha  occ. eigenvalues --   -0.45414  -0.44021  -0.42140  -0.40737  -0.39674
 Alpha  occ. eigenvalues --   -0.38238  -0.36897  -0.36504  -0.35065  -0.34545
 Alpha  occ. eigenvalues --   -0.32828  -0.29218  -0.25951  -0.19630
 Alpha virt. eigenvalues --    0.00857   0.02611   0.06279   0.07531   0.08394
 Alpha virt. eigenvalues --    0.08943   0.10981   0.11336   0.12745   0.13100
 Alpha virt. eigenvalues --    0.13991   0.14734   0.15223   0.16269   0.17739

 Mulliken atomic charges:
              1
     1  C    0.106164
     2  C   -0.088247
     3  N   -0.231071
     4  C    0.104514
     5  C   -0.074105
     6  C    0.094652
     7  C   -0.054431
     8  C   -0.010997
     9  C    0.043715
    10  H    0.028233
    11  H    0.026373
    12  H   -0.017537
    13  H   -0.031980
    14  H    0.008553
    15  H    0.006146
    16  H    0.014553
    17  H    0.020882
    18  H    0.015700
    19  H    0.018811
    20  H    0.017509
    21  H    0.001470
    22  H    0.001094
 Sum of Mulliken atomic charges =   0.00000

 Dipole moment (field-independent basis, Debye):
    X=             -0.7718    Y=             -0.5130    Z=              0.6617  Tot=              1.1388
 Quadrupole moment (field-independent basis, Debye-Ang):
   XX=            -56.2213   YY=            -54.8921   ZZ=            -56.5641
   XY=             -0.2120   XZ=              2.9951   YZ=              0.6820

 Normal termination of Gaussian 09 at Mon Mar 23 15:49:56 2015.
