 Gaussian 09, Revision B.01,
 Gaussian 09:  EM64L-G09RevB.01 12-Aug-2010

 ------------------------------------------------------
 # opt=modredundant B3LYP/cc-pVDZ Geom=PrintInputOrient
 ------------------------------------------------------

 -------------------------------
 PRL Dihedral Scan at MP2/6-31G*
 -------------------------------
 Symbolic Z-matrix:
 Charge =  0 Multiplicity = 1

 SCF Done:  E(RB3LYP) =  -367.407838485     A.U. after   14 cycles
 SCF Done:  E(RB3LYP) =  -367.407841382     A.U. after    7 cycles
 Optimization completed.
    -- Stationary point found.
 SCF Done:  E(RB3LYP) =  -367.403612177     A.U. after   12 cycles
 SCF Done:  E(RB3LYP) =  -367.406883455     A.U. after   11 cycles
 SCF Done:  E(RB3LYP) =  -367.407065394     A.U. after   10 cycles
 SCF Done:  E(RB3LYP) =  -367.407073721     A.U. after    8 cycles
 SCF Done:  E(RB3LYP) =  -367.407074502     A.U. after    8 cycles
 SCF Done:  E(RB3LYP) =  -367.407074907     A.U. after    7 cycles
 SCF Done:  E(RB3LYP) =  -367.407075082     A.U. after    7 cycles
 Optimization completed.
 SCF Done:  E(RB3LYP) =  -367.401457656     A.U. after   12 cycles
 SCF Done:  E(RB3LYP) =  -367.402847932     A.U. after   11 cycles
 SCF Done:  E(RB3LYP) =  -367.403250877     A.U. after   10 cycles
 SCF Done:  E(RB3LYP) =  -367.403259704     A.U. after   10 cycles
 SCF Done:  E(RB3LYP) =  -367.403261979     A.U. after   10 cycles
 SCF Done:  E(RB3LYP) =  -367.403262085     A.U. after    8 cycles
    -- Stationary point found.
 SCF Done:  E(RB3LYP) =  -367.401028137     A.U. after   11 cycles
 SCF Done:  E(RB3LYP) =  -367.404882600     A.U. after   11 cycles
 SCF Done:  E(RB3LYP) =  -367.405187306     A.U. after   11 cycles
 SCF Done:  E(RB3LYP) =  -367.405186590     A.U. after   10 cycles
 SCF Done:  E(RB3LYP) =  -367.405189035     A.U. after    9 cycles
 Optimization completed.
    -- Stationary point found.

                         Standard orientation:
 ---------------------------------------------------------------------
 Center     Atomic      Atomic             Coordinates (Angstroms)
 Number     Number       Type             X           Y           Z
 ---------------------------------------------------------------------
      1          6           0       -2.362243   -0.055819   -0.440031
      2          6           0       -1.137619    0.767324   -0.037073
      3          7           0       -0.175208   -0.146285    0.412029
      4          6           0       -0.684890   -1.449393    0.338892
      5          6           0       -1.938820   -1.478760   -0.141619
      6          6           0        1.133744    0.220178    0.913995
      7          6           0        2.166932    0.554155   -0.184670
      8          6           0        2.990612   -0.654490   -0.635450
      9          6           0       -1.002428    2.107324   -0.093351
     10          1           0       -2.608521    0.099999   -1.505503
     11          1           0       -3.253302    0.252787    0.134930
     12          1           0       -0.055012   -2.277375    0.663253
     13          1           0       -2.549761   -2.364998   -0.291989
     14          1           0        1.002275    1.092576    1.578564
     15          1           0        1.501253   -0.604373    1.546283
     16          1           0        1.641882    1.012043   -1.038371
     17          1           0        2.853154    1.326696    0.206642
     18          1           0        3.707296   -0.381074   -1.426573
     19          1           0        3.566421   -1.078505    0.205057
     20          1           0        2.346304   -1.455225   -1.037603
     21          1           0       -0.084260    2.616969    0.198516
     22          1           0       -1.832997    2.721362   -0.441566
 ---------------------------------------------------------------------

 The electronic state is 1-A.
 Alpha  occ. eigenvalues --  -14.35151 -10.22416 -10.21788 -10.21484 -10.19210
 Alpha  occ. eigenvalues --  -10.18764 -10.18309 -10.16852 -10.15338  -0.96596
 Alpha  occ. eigenvalues --   -0.80952  -0.75860  -0.75582  -0.68333  -0.65227
 Alpha  occ. eigenvalues --   -0.60488  -0.57642  -0.52669  -0.49702  -0.46563
 Alpha  occ. eigenvalues --   -0.44829  -0.43857  -0.42778  -0.40974  -0.39922
 Alpha  occ. eigenvalues --   -0.39396  -0.37444  -0.36812  -0.34964  -0.33954
 Alpha  occ. eigenvalues --   -0.33658  -0.32003  -0.26081  -0.17203
 Alpha virt. eigenvalues --    0.01067   0.05278   0.06650   0.07860   0.08295
 Alpha virt. eigenvalues --    0.09435   0.10716   0.11595   0.12726   0.13146
 Alpha virt. eigenvalues --    0.13882   0.14629   0.14944   0.15240   0.15823

 Mulliken atomic charges:
              1
     1  C    0.095013
     2  C   -0.030580
     3  N   -0.223125
     4  C    0.147099
     5  C   -0.137997
     6  C    0.102181
     7  C   -0.029895
     8  C   -0.027838
     9  C   -0.031540
    10  H    0.043797
    11  H    0.043603
    12  H   -0.012056
    13  H   -0.034041
    14  H    0.013437
    15  H    0.004098
    16  H    0.025979
    17  H    0.003215
    18  H    0.018284
    19  H    0.017794
    20  H    0.025511
    21  H   -0.004115
    22  H   -0.008824
 Sum of Mulliken atomic charges =   0.00000

 Dipole moment (field-independent basis, Debye):
    X=              0.8998    Y=             -0.8031    Z=              0.2876  Tot=              1.2399
 Quadrupole moment (field-independent basis, Debye-Ang):
   XX=            -53.4670   YY=            -56.7855   ZZ=            -57.6708
   XY=              0.5687   XZ=              2.3710   YZ=             -0.6474

 Normal termination of Gaussian 09 at Sun Mar 22 18:04:11 2015.
