 Gaussian 09, Revision B.01,
 Gaussian 09:  EM64L-G09RevB.01 12-Aug-2010

 ------------------------------------------------------
 # opt=modredundant B3LYP/cc-pVDZ Geom=PrintInputOrient
 ------------------------------------------------------

 -------------------------------
 PRL Dihedral Scan at MP2/6-31G*
 -------------------------------
 Symbolic Z-matrix:
 Charge =  0 Multiplicity = 1

 SCF Done:  E(RB3LYP) =  -367.407838485     A.U. after   14 cycles
 SCF Done:  E(RB3LYP) =  -367.407841342     A.U. after    8 cycles
 Optimization completed.
    -- Stationary point found.
 SCF Done:  E(RB3LYP) =  -367.405313784     A.U. after   12 cycles
 SCF Done:  E(RB3LYP) =  -367.407219110     A.U. after   11 cycles
 SCF Done:  E(RB3LYP) =  -367.407373255     A.U. after   10 cycles
 SCF Done:  E(RB3LYP) =  -367.407384911     A.U. after    9 cycles
 SCF Done:  E(RB3LYP) =  -367.407392976     A.U. after   10 cycles
 SCF Done:  E(RB3LYP) =  -367.407400694     A.U. after   10 cycles
 SCF Done:  E(RB3LYP) =  -367.407406245     A.U. after   10 cycles
 SCF Done:  E(RB3LYP) =  -367.407406701     A.U. after    8 cycles
 Optimization completed.
 SCF Done:  E(RB3LYP) =  -367.405436239     A.U. after   15 cycles
 SCF Done:  E(RB3LYP) =  -367.405437222     A.U. after    8 cycles
 SCF Done:  E(RB3LYP) =  -367.405437298     A.U. after    7 cycles
    -- Stationary point found.
 SCF Done:  E(RB3LYP) =  -367.403426314     A.U. after   15 cycles
 SCF Done:  E(RB3LYP) =  -367.405709483     A.U. after   11 cycles
 SCF Done:  E(RB3LYP) =  -367.405790138     A.U. after   11 cycles
 SCF Done:  E(RB3LYP) =  -367.405800709     A.U. after   10 cycles
 SCF Done:  E(RB3LYP) =  -367.405805021     A.U. after   10 cycles
 SCF Done:  E(RB3LYP) =  -367.405805746     A.U. after   14 cycles
 SCF Done:  E(RB3LYP) =  -367.405805792     A.U. after    7 cycles
 Optimization completed.
    -- Stationary point found.

                         Standard orientation:
 ---------------------------------------------------------------------
 Center     Atomic      Atomic             Coordinates (Angstroms)
 Number     Number       Type             X           Y           Z
 ---------------------------------------------------------------------
      1          6           0        2.575048   -0.167625    0.068082
      2          6           0        1.363551    0.762650    0.029066
      3          7           0        0.226587   -0.056632    0.006714
      4          6           0        0.616745   -1.401864   -0.062242
      5          6           0        1.952671   -1.543282   -0.030369
      6          6           0       -1.113400    0.481588   -0.122785
      7          6           0       -2.231925   -0.539791    0.083613
      8          6           0       -3.612373    0.119493    0.030741
      9          6           0        1.368475    2.110119   -0.002884
     10          1           0        3.146761   -0.032545    1.004400
     11          1           0        3.272221    0.053371   -0.758537
     12          1           0       -0.140766   -2.180166   -0.114315
     13          1           0        2.496130   -2.484610   -0.038500
     14          1           0       -1.224678    1.287608    0.626272
     15          1           0       -1.230836    0.968641   -1.113411
     16          1           0       -2.174191   -1.324461   -0.690409
     17          1           0       -2.093407   -1.042390    1.056725
     18          1           0       -4.412653   -0.623864    0.169236
     19          1           0       -3.723691    0.882323    0.819421
     20          1           0       -3.782621    0.616720   -0.938973
     21          1           0        0.453060    2.699251   -0.051540
     22          1           0        2.315814    2.648815    0.023306
 ---------------------------------------------------------------------

 The electronic state is 1-A.
 Alpha  occ. eigenvalues --  -14.35053 -10.22427 -10.21521 -10.21342 -10.19828
 Alpha  occ. eigenvalues --  -10.19026 -10.18939 -10.16700 -10.15207  -0.96451
 Alpha  occ. eigenvalues --   -0.81265  -0.76501  -0.75357  -0.68249  -0.65181
 Alpha  occ. eigenvalues --   -0.60875  -0.57152  -0.52597  -0.49723  -0.48314
 Alpha  occ. eigenvalues --   -0.44442  -0.43776  -0.42987  -0.40607  -0.39754
 Alpha  occ. eigenvalues --   -0.39371  -0.38483  -0.35997  -0.35134  -0.34875
 Alpha  occ. eigenvalues --   -0.33678  -0.32137  -0.25877  -0.17130
 Alpha virt. eigenvalues --    0.01268   0.05151   0.06597   0.07693   0.08008
 Alpha virt. eigenvalues --    0.10084   0.10127   0.11130   0.12580   0.13249
 Alpha virt. eigenvalues --    0.14241   0.15092   0.15226   0.16270   0.16566

 Mulliken atomic charges:
              1
     1  C    0.095420
     2  C   -0.027860
     3  N   -0.245888
     4  C    0.148552
     5  C   -0.138416
     6  C    0.114287
     7  C   -0.085642
     8  C    0.001076
     9  C   -0.035628
    10  H    0.043823
    11  H    0.041894
    12  H   -0.009806
    13  H   -0.034647
    14  H    0.023738
    15  H    0.014457
    16  H    0.024398
    17  H    0.022094
    18  H    0.018563
    19  H    0.023384
    20  H    0.023763
    21  H   -0.007439
    22  H   -0.010123
 Sum of Mulliken atomic charges =   0.00000

 Dipole moment (field-independent basis, Debye):
    X=             -1.3432    Y=             -0.8709    Z=             -0.0120  Tot=              1.6009
 Quadrupole moment (field-independent basis, Debye-Ang):
   XX=            -52.2231   YY=            -56.8126   ZZ=            -58.7386
   XY=             -0.4674   XZ=              0.2559   YZ=              0.1224

 Normal termination of Gaussian 09 at Mon Mar 23 15:34:28 2015.
