                               Psi4 1.1 release

  ==> Input File <==

--------------------------------------------------------------------------

memory 1000 mb

molecule butane {
  symmetry C1
  0 1
  H      1.684   0.773   -7.894
  H      1.701   2.357   -8.632
  H      1.845   0.929   -9.627
  C      2.098   1.364   -8.684
  H      4.045   2.007   -9.327
  H      3.885   1.853   -7.594
  C      3.631   1.416   -8.537
  H      3.665   -0.647   -7.940
  H      4.104   -0.384   -9.610
  C      4.203   -0.012   -8.612
  H      6.088   -0.983   -8.270
  H      5.791   0.381   -7.220
  H      6.230   0.644   -8.890
  C      5.691   0.009   -8.218
  units Angstrom
}

dih_string = "14 10 7 4 190"
set optking fixed_dihedral = $dih_string

optimize('MP2/aug-cc-pvtz')
--------------------------------------------------------------------------

    Molecular point group: c1
  Charge       = 0
  Multiplicity = 1
  Basis Set: AUG-CC-PVTZ
    Blend: AUG-CC-PVTZ
  Basis Set: (AUG-CC-PVTZ AUX)
    Blend: AUG-CC-PVTZ-JKFIT
  @DF-RHF Final Energy:  -157.35238914308093
    Total Energy =                       -157.3523891430809272
  Basis Set: (AUG-CC-PVTZ AUX)
    Blend: AUG-CC-PVTZ-RI
    Molecular point group: c1
  Basis Set: AUG-CC-PVTZ
    Blend: AUG-CC-PVTZ
  Basis Set: (AUG-CC-PVTZ AUX)
    Blend: AUG-CC-PVTZ-JKFIT
  Basis Set: (AUG-CC-PVTZ AUX)
    Blend: AUG-CC-PVTZ-JKFIT
	 Reference Energy          =    -157.3523891430809272 [Eh]
	 Singles Energy            =      -0.0000000000000000 [Eh]
	 Same-Spin Energy          =      -0.1653766177979631 [Eh]
	 Opposite-Spin Energy      =      -0.6387363522156793 [Eh]
	 Correlation Energy        =      -0.8041129700136423 [Eh]
	 Total Energy              =    -158.1565021130945752 [Eh]
	 SCS Total Energy          =    -158.1739983050057390 [Eh]
  @DF-RHF Final Energy:  -157.35503041660394
    Total Energy =                       -157.3550304166039382
  @DF-RHF Final Energy:  -157.35582547737525
    Total Energy =                       -157.3558254773752481
  @DF-RHF Final Energy:  -157.35606288323191
    Total Energy =                       -157.3560628832319139
  Charge       = 0
  Multiplicity = 1
  Basis Set: AUG-CC-PVTZ
    Blend: AUG-CC-PVTZ
  Basis Set: (AUG-CC-PVTZ AUX)
    Blend: AUG-CC-PVTZ-JKFIT

    Orbital Energies (a.u.)
    -----------------------

    Doubly Occupied:

       1A    -11.211366     2A    -11.210728     3A    -11.206126
       4A    -11.206119     5A     -1.074359     6A     -0.982291
       7A     -0.860852     8A     -0.787918     9A     -0.640977
      10A     -0.585663    11A     -0.578367    12A     -0.567229
      13A     -0.514380    14A     -0.494971    15A     -0.469311
      16A     -0.461143    17A     -0.456687

  @DF-RHF Final Energy:  -157.35606094474130

   => Energetics <=

    Nuclear Repulsion Energy =            131.5596937617493438
    One-Electron Energy =                -471.2145342237118371
    Two-Electron Energy =                 182.2987795172212202
    DFT Exchange-Correlation Energy =       0.0000000000000000
    Empirical Dispersion Energy =           0.0000000000000000
    PCM Polarization Energy =               0.0000000000000000
    EFP Energy =                            0.0000000000000000
    Total Energy =                       -157.3560609447413015
  Basis Set: (AUG-CC-PVTZ AUX)
    Blend: AUG-CC-PVTZ-RI
    Molecular point group: c1
  Basis Set: AUG-CC-PVTZ
    Blend: AUG-CC-PVTZ
  Basis Set: (AUG-CC-PVTZ AUX)
    Blend: AUG-CC-PVTZ-JKFIT
  Basis Set: (AUG-CC-PVTZ AUX)
    Blend: AUG-CC-PVTZ-JKFIT
	 Reference Energy          =    -157.3560609447413015 [Eh]
	 Singles Energy            =      -0.0000000000000001 [Eh]
	 Same-Spin Energy          =      -0.1654572328569553 [Eh]
	 Opposite-Spin Energy      =      -0.6392236454719930 [Eh]
	 Correlation Energy        =      -0.8046808783289484 [Eh]
	 Total Energy              =    -158.1607418230702535 [Eh]

	 ================> DF-SCS-MP2 Energies <==================
	-----------------------------------------------------------
	 SCS Same-Spin Scale       =       0.3333333333333333 [-]
	 SCS Opposite-Spin Scale   =       1.2000000000000000 [-]
	 SCS Same-Spin Energy      =      -0.0551524109523184 [Eh]
	 SCS Opposite-Spin Energy  =      -0.7670683745663915 [Eh]
	 SCS Correlation Energy    =      -0.8222207855187101 [Eh]
	 SCS Total Energy          =    -158.1782817302600108 [Eh]
	-----------------------------------------------------------

  -Total Gradient:
     Atom            X                  Y                   Z
    ------   -----------------  -----------------  -----------------
       1       -0.000044789100    -0.000043274311     0.000061866272
       2       -0.000021223718     0.000075459934     0.000001723870
       3       -0.000039025145    -0.000030906906    -0.000072595111
       4        0.000051230828    -0.000139137276     0.001159464956
       5        0.000000947734    -0.000004815151    -0.000057642545
       6        0.000003901139    -0.000020489611    -0.000012613475
       7        0.000021064604     0.000113533326    -0.001090218725
       8       -0.000000611920     0.000022795283    -0.000007248364
       9        0.000017528966     0.000017194274    -0.000052257318
      10        0.000350491703     0.000149142550    -0.001031288359
      11        0.000022441384    -0.000076115759    -0.000008784751
      12        0.000018240691     0.000025472688     0.000082660668
      13        0.000055091746     0.000041285183    -0.000041953839
      14       -0.000435288910    -0.000130144229     0.001068886719

  **** Optimization is complete! (in 5 steps) ****
    Final optimized geometry and variables:
    Molecular point group: c1

    Geometry (in Angstrom), charge = 0, multiplicity = 1:

    H           -2.259044022355     0.094315004523     0.627475903171
    H           -2.232427525852     1.673303505574    -0.150892543201
    H           -2.096564870017     0.210189408370    -1.119307100799
    C           -1.807577379959     0.672415727154    -0.176701645079
    H            0.142611308759     1.325238843872    -0.807431419188
    H           -0.034942005642     1.160861155504     0.923693529997
    C           -0.298093568369     0.699837536004    -0.029850858674
    H           -0.229660865968    -1.346343731135     0.580221167643
    H            0.192387367353    -1.090427956744    -1.096598163067
    C            0.319523372631    -0.684820643537    -0.091958634331
    H            2.220482232762    -1.681676915454     0.218826289102
    H            1.918178211257    -0.333220212832     1.309723962525
    H            2.357691577157    -0.027144635464    -0.364858068271
    C            1.787935507069    -0.686180772115     0.288361201345

*** Psi4 exiting successfully. Buy a developer a beer!
