                               Psi4 1.1 release

  ==> Input File <==

--------------------------------------------------------------------------

memory 1000 mb

molecule butane {
  symmetry C1
  0 1
  H      1.604   0.760   -8.260
  H      1.745   2.388   -8.880
  H      2.043   1.024   -9.930
  C      2.142   1.395   -8.932
  H      4.169   2.051   -9.210
  H      3.731   1.788   -7.539
  C      3.631   1.416   -8.537
  H      3.665   -0.647   -7.940
  H      4.104   -0.384   -9.610
  C      4.203   -0.012   -8.612
  H      5.778   0.037   -7.152
  H      6.159   0.875   -8.637
  H      6.172   -0.871   -8.591
  C      5.691   0.009   -8.218
  units Angstrom
}

dih_string = "7 10 14 13 200"
set optking fixed_dihedral = $dih_string

optimize('MP2/aug-cc-pvtz')
--------------------------------------------------------------------------

    Molecular point group: c1
  Charge       = 0
  Multiplicity = 1
  Basis Set: AUG-CC-PVTZ
    Blend: AUG-CC-PVTZ
  Basis Set: (AUG-CC-PVTZ AUX)
    Blend: AUG-CC-PVTZ-JKFIT
  @DF-RHF Final Energy:  -157.35142096478779
    Total Energy =                       -157.3514209647877919
  Basis Set: (AUG-CC-PVTZ AUX)
    Blend: AUG-CC-PVTZ-RI
    Molecular point group: c1
  Basis Set: AUG-CC-PVTZ
    Blend: AUG-CC-PVTZ
  Basis Set: (AUG-CC-PVTZ AUX)
    Blend: AUG-CC-PVTZ-JKFIT
  Basis Set: (AUG-CC-PVTZ AUX)
    Blend: AUG-CC-PVTZ-JKFIT
	 Reference Energy          =    -157.3514209647877919 [Eh]
	 Singles Energy            =      -0.0000000000000000 [Eh]
	 Same-Spin Energy          =      -0.1654004170969161 [Eh]
	 Opposite-Spin Energy      =      -0.6388839243086871 [Eh]
	 Correlation Energy        =      -0.8042843414056031 [Eh]
	 Total Energy              =    -158.1557053061933971 [Eh]
	 SCS Total Energy          =    -158.1732151463238552 [Eh]
  @DF-RHF Final Energy:  -157.35410746789350
    Total Energy =                       -157.3541074678934990
  @DF-RHF Final Energy:  -157.35493798314752
    Total Energy =                       -157.3549379831475221
  @DF-RHF Final Energy:  -157.35522541186344
    Total Energy =                       -157.3552254118634437
  @DF-RHF Final Energy:  -157.35524481500715
    Total Energy =                       -157.3552448150071541
  Charge       = 0
  Multiplicity = 1
  Basis Set: AUG-CC-PVTZ
    Blend: AUG-CC-PVTZ
  Basis Set: (AUG-CC-PVTZ AUX)
    Blend: AUG-CC-PVTZ-JKFIT

    Orbital Energies (a.u.)
    -----------------------

    Doubly Occupied:

       1A    -11.211452     2A    -11.210796     3A    -11.206001
       4A    -11.205912     5A     -1.074110     6A     -0.981860
       7A     -0.861161     8A     -0.788190     9A     -0.640781
      10A     -0.585063    11A     -0.577235    12A     -0.568872
      13A     -0.513398    14A     -0.495213    15A     -0.470115
      16A     -0.460650    17A     -0.456136

  @DF-RHF Final Energy:  -157.35524934811070

   => Energetics <=

    Nuclear Repulsion Energy =            131.5036968135628115
    One-Electron Energy =                -471.1040010081366063
    Two-Electron Energy =                 182.2450548464631197
    DFT Exchange-Correlation Energy =       0.0000000000000000
    Empirical Dispersion Energy =           0.0000000000000000
    PCM Polarization Energy =               0.0000000000000000
    EFP Energy =                            0.0000000000000000
    Total Energy =                       -157.3552493481107035
  Basis Set: (AUG-CC-PVTZ AUX)
    Blend: AUG-CC-PVTZ-RI
    Molecular point group: c1
  Basis Set: AUG-CC-PVTZ
    Blend: AUG-CC-PVTZ
  Basis Set: (AUG-CC-PVTZ AUX)
    Blend: AUG-CC-PVTZ-JKFIT
  Basis Set: (AUG-CC-PVTZ AUX)
    Blend: AUG-CC-PVTZ-JKFIT
	 Reference Energy          =    -157.3552493481107035 [Eh]
	 Singles Energy            =      -0.0000000000000000 [Eh]
	 Same-Spin Energy          =      -0.1654641459484195 [Eh]
	 Opposite-Spin Energy      =      -0.6393292090343116 [Eh]
	 Correlation Energy        =      -0.8047933549827311 [Eh]
	 Total Energy              =    -158.1600427030934384 [Eh]

	 ================> DF-SCS-MP2 Energies <==================
	-----------------------------------------------------------
	 SCS Same-Spin Scale       =       0.3333333333333333 [-]
	 SCS Opposite-Spin Scale   =       1.2000000000000000 [-]
	 SCS Same-Spin Energy      =      -0.0551547153161398 [Eh]
	 SCS Opposite-Spin Energy  =      -0.7671950508411739 [Eh]
	 SCS Correlation Energy    =      -0.8223497661573137 [Eh]
	 SCS Total Energy          =    -158.1775991142680198 [Eh]
	-----------------------------------------------------------

  -Total Gradient:
     Atom            X                  Y                   Z
    ------   -----------------  -----------------  -----------------
       1        0.000007211035     0.000003243054    -0.000001332063
       2       -0.000007890199    -0.000005469998    -0.000003902466
       3       -0.000013257227     0.000001625321     0.000010091160
       4        0.000023181276     0.000008812438    -0.000030262316
       5       -0.000013314731     0.000000140057     0.000016511015
       6        0.000013702458    -0.000000473554    -0.000004535094
       7        0.000506745588     0.000318555734    -0.001871490481
       8       -0.000005091365     0.000005421273    -0.000001159053
       9       -0.000000028889    -0.000005769094     0.000027656191
      10       -0.000534383689    -0.000098310446     0.001988349871
      11       -0.000006284744    -0.000008508972    -0.000002561460
      12       -0.000001332978    -0.000020111758     0.000017626074
      13        0.000662697203     0.001327282632    -0.002315531519
      14       -0.000631953739    -0.001526436687     0.002170540141

  **** Optimization is complete! (in 6 steps) ****
    Final optimized geometry and variables:
    Molecular point group: c1

    Geometry (in Angstrom), charge = 0, multiplicity = 1:

    H           -2.345367564734     0.080526048926     0.340324772622
    H           -2.191154594119     1.708576841060    -0.310158997561
    H           -1.922811813937     0.314127558862    -1.349920673755
    C           -1.774459230104     0.704680538998    -0.344654894218
    H            0.250043928826     1.350329915209    -0.654224399722
    H           -0.168892115228     1.102971287325     1.024980947757
    C           -0.302466886836     0.695733909491     0.021131040168
    H           -0.268012955096    -1.370409497110     0.592221447566
    H            0.205685374469    -1.065922769209    -1.060961705368
    C            0.305799148282    -0.692396474804    -0.040694107853
    H            1.882637513102    -0.658409221397     1.446753551443
    H            2.287857719758     0.149777574198    -0.058826332481
    H            2.280422503592    -1.597887719190     0.003123780092
    C            1.770252848696    -0.709166895790     0.366459331970

*** Psi4 exiting successfully. Buy a developer a beer!
