                               Psi4 1.1 release

  ==> Input File <==

--------------------------------------------------------------------------

memory 5000 mb

molecule butane {
  symmetry C1
  0 1
  H      1.539   1.414   -8.049
  H      1.920   2.252   -9.534
  H      1.933   0.506   -9.488
  C      2.142   1.395   -8.932
  H      4.169   2.051   -9.210
  H      3.731   1.788   -7.539
  C      3.631   1.416   -8.537
  H      3.665   -0.647   -7.940
  H      4.104   -0.384   -9.610
  C      4.203   -0.012   -8.612
  H      6.088   -0.983   -8.270
  H      5.791   0.381   -7.220
  H      6.230   0.644   -8.890
  C      5.691   0.009   -8.218
  units Angstrom
}

dih_string = "10 7 4 3 340"
set optking fixed_dihedral = $dih_string

optimize('MP2/aug-cc-pvtz')
--------------------------------------------------------------------------

    Molecular point group: c1
  Charge       = 0
  Multiplicity = 1
  Basis Set: AUG-CC-PVTZ
    Blend: AUG-CC-PVTZ
  Basis Set: (AUG-CC-PVTZ AUX)
    Blend: AUG-CC-PVTZ-JKFIT
  @DF-RHF Final Energy:  -157.34860787874513
    Total Energy =                       -157.3486078787451277
  Basis Set: (AUG-CC-PVTZ AUX)
    Blend: AUG-CC-PVTZ-RI
    Molecular point group: c1
  Basis Set: AUG-CC-PVTZ
    Blend: AUG-CC-PVTZ
  Basis Set: (AUG-CC-PVTZ AUX)
    Blend: AUG-CC-PVTZ-JKFIT
  Basis Set: (AUG-CC-PVTZ AUX)
    Blend: AUG-CC-PVTZ-JKFIT
	 Reference Energy          =    -157.3486078787451277 [Eh]
	 Singles Energy            =      -0.0000000000000000 [Eh]
	 Same-Spin Energy          =      -0.1654605995024909 [Eh]
	 Opposite-Spin Energy      =      -0.6393185418996385 [Eh]
	 Correlation Energy        =      -0.8047791414021295 [Eh]
	 Total Energy              =    -158.1533870201472496 [Eh]
	 SCS Total Energy          =    -158.1709436621922009 [Eh]
  @DF-RHF Final Energy:  -157.35144788877631
    Total Energy =                       -157.3514478887763062
  @DF-RHF Final Energy:  -157.35234148893298
    Total Energy =                       -157.3523414889329786
  @DF-RHF Final Energy:  -157.35266446365435
    Total Energy =                       -157.3526644636543494
  @DF-RHF Final Energy:  -157.35268915638082
    Total Energy =                       -157.3526891563808192
  @DF-RHF Final Energy:  -157.35269535376830
    Total Energy =                       -157.3526953537682971
  @DF-RHF Final Energy:  -157.35267948580977
    Total Energy =                       -157.3526794858097730
  @DF-RHF Final Energy:  -157.35269053620348
    Total Energy =                       -157.3526905362034825
  @DF-RHF Final Energy:  -157.35268578811164
    Total Energy =                       -157.3526857881116428
  Charge       = 0
  Multiplicity = 1
  Basis Set: AUG-CC-PVTZ
    Blend: AUG-CC-PVTZ
  Basis Set: (AUG-CC-PVTZ AUX)
    Blend: AUG-CC-PVTZ-JKFIT

    Orbital Energies (a.u.)
    -----------------------

    Doubly Occupied:

       1A    -11.211646     2A    -11.210835     3A    -11.205927
       4A    -11.205608     5A     -1.073254     6A     -0.980844
       7A     -0.861726     8A     -0.788828     9A     -0.639166
      10A     -0.584888    11A     -0.578041    12A     -0.568449
      13A     -0.512788    14A     -0.495443    15A     -0.470605
      16A     -0.457991    17A     -0.456126

  @DF-RHF Final Energy:  -157.35269075423426

   => Energetics <=

    Nuclear Repulsion Energy =            131.3732829330928951
    One-Electron Energy =                -470.8476181130633904
    Two-Electron Energy =                 182.1216444257362070
    DFT Exchange-Correlation Energy =       0.0000000000000000
    Empirical Dispersion Energy =           0.0000000000000000
    PCM Polarization Energy =               0.0000000000000000
    EFP Energy =                            0.0000000000000000
    Total Energy =                       -157.3526907542342599
  Basis Set: (AUG-CC-PVTZ AUX)
    Blend: AUG-CC-PVTZ-RI
    Molecular point group: c1
  Basis Set: AUG-CC-PVTZ
    Blend: AUG-CC-PVTZ
  Basis Set: (AUG-CC-PVTZ AUX)
    Blend: AUG-CC-PVTZ-JKFIT
  Basis Set: (AUG-CC-PVTZ AUX)
    Blend: AUG-CC-PVTZ-JKFIT
	 Reference Energy          =    -157.3526907542342599 [Eh]
	 Singles Energy            =      -0.0000000000000000 [Eh]
	 Same-Spin Energy          =      -0.1654651907160813 [Eh]
	 Opposite-Spin Energy      =      -0.6397240417548737 [Eh]
	 Correlation Energy        =      -0.8051892324709551 [Eh]
	 Total Energy              =    -158.1578799867052112 [Eh]

	 ================> DF-SCS-MP2 Energies <==================
	-----------------------------------------------------------
	 SCS Same-Spin Scale       =       0.3333333333333333 [-]
	 SCS Opposite-Spin Scale   =       1.2000000000000000 [-]
	 SCS Same-Spin Energy      =      -0.0551550635720271 [Eh]
	 SCS Opposite-Spin Energy  =      -0.7676688501058485 [Eh]
	 SCS Correlation Energy    =      -0.8228239136778757 [Eh]
	 SCS Total Energy          =    -158.1755146679121253 [Eh]
	-----------------------------------------------------------

  -Total Gradient:
     Atom            X                  Y                   Z
    ------   -----------------  -----------------  -----------------
       1        0.000022221551    -0.000046043487    -0.000004337935
       2        0.000014214486    -0.000039022959     0.000051918338
       3       -0.000687748468    -0.001531503838     0.002794938294
       4        0.001152941943     0.002134729168    -0.004423508680
       5       -0.000008269918     0.000051292947     0.000026527459
       6        0.000039789778    -0.000006869650    -0.000080900599
       7       -0.001064049692    -0.000893222696     0.003808806271
       8       -0.000002577566    -0.000024529672    -0.000051637829
       9       -0.000022847973    -0.000003587884     0.000039091723
      10        0.000567602444     0.000363047173    -0.002099951767
      11       -0.000005349294     0.000027864694    -0.000014913809
      12       -0.000030212866    -0.000013878903    -0.000045677011
      13       -0.000011093080    -0.000015766290     0.000034794751
      14        0.000035378651    -0.000002508602    -0.000035149203

  **** Optimization is complete! (in 10 steps) ****
    Final optimized geometry and variables:
    Molecular point group: c1

    Geometry (in Angstrom), charge = 0, multiplicity = 1:

    H           -2.409562973987     0.682121650520     0.533342826212
    H           -2.064046204234     1.565356717807    -0.942761226712
    H           -2.039086655787    -0.201076271872    -0.920487605318
    C           -1.784462922259     0.694663802354    -0.356950703432
    H            0.252019867209     1.333518497903    -0.671452993373
    H           -0.161186123842     1.119937699364     1.008499817708
    C           -0.303170121429     0.693618293551     0.015627098545
    H           -0.252097449707    -1.360356307371     0.619817529285
    H            0.207957106210    -1.085081623759    -1.043809821646
    C            0.313539350885    -0.691922811529    -0.031931786223
    H            2.205592029815    -1.692110485116     0.315105378968
    H            1.893239917520    -0.335932021455     1.392775367472
    H            2.354416545204    -0.041478502044    -0.277741697897
    C            1.775164837937    -0.695091050287     0.372139428576

*** Psi4 exiting successfully. Buy a developer a beer!
