                               Psi4 1.1 release

  ==> Input File <==

--------------------------------------------------------------------------

memory 5000 mb

molecule butane {
  symmetry C1
  0 1
  H      1.835   2.379   -9.219
  H      2.000   0.723   -9.754
  H      1.557   1.067   -8.099
  C      2.142   1.395   -8.932
  H      4.169   2.051   -9.210
  H      3.731   1.788   -7.539
  C      3.631   1.416   -8.537
  H      3.665   -0.647   -7.940
  H      4.104   -0.384   -9.610
  C      4.203   -0.012   -8.612
  H      6.088   -0.983   -8.270
  H      5.791   0.381   -7.220
  H      6.230   0.644   -8.890
  C      5.691   0.009   -8.218
  units Angstrom
}

dih_string = "10 7 4 3 80"
set optking fixed_dihedral = $dih_string

optimize('MP2/aug-cc-pvtz')
--------------------------------------------------------------------------

    Molecular point group: c1
  Charge       = 0
  Multiplicity = 1
  Basis Set: AUG-CC-PVTZ
    Blend: AUG-CC-PVTZ
  Basis Set: (AUG-CC-PVTZ AUX)
    Blend: AUG-CC-PVTZ-JKFIT
  @DF-RHF Final Energy:  -157.35143936178847
    Total Energy =                       -157.3514393617884650
  Basis Set: (AUG-CC-PVTZ AUX)
    Blend: AUG-CC-PVTZ-RI
    Molecular point group: c1
  Basis Set: AUG-CC-PVTZ
    Blend: AUG-CC-PVTZ
  Basis Set: (AUG-CC-PVTZ AUX)
    Blend: AUG-CC-PVTZ-JKFIT
  Basis Set: (AUG-CC-PVTZ AUX)
    Blend: AUG-CC-PVTZ-JKFIT
	 Reference Energy          =    -157.3514393617884650 [Eh]
	 Singles Energy            =      -0.0000000000000000 [Eh]
	 Same-Spin Energy          =      -0.1653999749837450 [Eh]
	 Opposite-Spin Energy      =      -0.6388883515576527 [Eh]
	 Correlation Energy        =      -0.8042883265413976 [Eh]
	 Total Energy              =    -158.1557276883298755 [Eh]
	 SCS Total Energy          =    -158.1732387086522351 [Eh]
  @DF-RHF Final Energy:  -157.35411463699990
    Total Energy =                       -157.3541146369998955
  @DF-RHF Final Energy:  -157.35493714486097
    Total Energy =                       -157.3549371448609691
  @DF-RHF Final Energy:  -157.35521592501715
    Total Energy =                       -157.3552159250171485
  @DF-RHF Final Energy:  -157.35522654629239
    Total Energy =                       -157.3552265462923856
  Charge       = 0
  Multiplicity = 1
  Basis Set: AUG-CC-PVTZ
    Blend: AUG-CC-PVTZ
  Basis Set: (AUG-CC-PVTZ AUX)
    Blend: AUG-CC-PVTZ-JKFIT

    Orbital Energies (a.u.)
    -----------------------

    Doubly Occupied:

       1A    -11.211412     2A    -11.210767     3A    -11.205969
       4A    -11.205911     5A     -1.073954     6A     -0.981871
       7A     -0.861267     8A     -0.787963     9A     -0.640660
      10A     -0.585082    11A     -0.577388    12A     -0.568544
      13A     -0.513824    14A     -0.495321    15A     -0.470188
      16A     -0.460655    17A     -0.455556

  @DF-RHF Final Energy:  -157.35523370173422

   => Energetics <=

    Nuclear Repulsion Energy =            131.4776676360500289
    One-Electron Energy =                -471.0531368686253586
    Two-Electron Energy =                 182.2202355308410802
    DFT Exchange-Correlation Energy =       0.0000000000000000
    Empirical Dispersion Energy =           0.0000000000000000
    PCM Polarization Energy =               0.0000000000000000
    EFP Energy =                            0.0000000000000000
    Total Energy =                       -157.3552337017342211
  Basis Set: (AUG-CC-PVTZ AUX)
    Blend: AUG-CC-PVTZ-RI
    Molecular point group: c1
  Basis Set: AUG-CC-PVTZ
    Blend: AUG-CC-PVTZ
  Basis Set: (AUG-CC-PVTZ AUX)
    Blend: AUG-CC-PVTZ-JKFIT
  Basis Set: (AUG-CC-PVTZ AUX)
    Blend: AUG-CC-PVTZ-JKFIT
	 Reference Energy          =    -157.3552337017342211 [Eh]
	 Singles Energy            =      -0.0000000000000002 [Eh]
	 Same-Spin Energy          =      -0.1654436806509521 [Eh]
	 Opposite-Spin Energy      =      -0.6393219265997097 [Eh]
	 Correlation Energy        =      -0.8047656072506619 [Eh]
	 Total Energy              =    -158.1599993089848795 [Eh]

	 ================> DF-SCS-MP2 Energies <==================
	-----------------------------------------------------------
	 SCS Same-Spin Scale       =       0.3333333333333333 [-]
	 SCS Opposite-Spin Scale   =       1.2000000000000000 [-]
	 SCS Same-Spin Energy      =      -0.0551478935503174 [Eh]
	 SCS Opposite-Spin Energy  =      -0.7671863119196516 [Eh]
	 SCS Correlation Energy    =      -0.8223342054699690 [Eh]
	 SCS Total Energy          =    -158.1775679072041783 [Eh]
	-----------------------------------------------------------

  -Total Gradient:
     Atom            X                  Y                   Z
    ------   -----------------  -----------------  -----------------
       1       -0.000008540020    -0.000007167170    -0.000002701576
       2       -0.000013883192    -0.000007823695    -0.000011359262
       3       -0.000213520014     0.002662666470     0.000864920817
       4        0.000472671698    -0.003210617081    -0.001844983857
       5       -0.000009435899    -0.000005266123     0.000014847734
       6        0.000003771613     0.000000512420     0.000017466142
       7       -0.000738499159     0.000298499847     0.002918441286
       8       -0.000008780621     0.000005500432     0.000005655549
       9        0.000007782563    -0.000003478994     0.000011848421
      10        0.000489439305     0.000278021123    -0.001955513754
      11        0.000016458326    -0.000007123878     0.000001944770
      12       -0.000005562633     0.000001156699     0.000005299209
      13        0.000009313253     0.000001905227     0.000002673933
      14       -0.000001215219    -0.000006785280    -0.000028539411

  **** Optimization is complete! (in 6 steps) ****
    Final optimized geometry and variables:
    Molecular point group: c1

    Geometry (in Angstrom), charge = 0, multiplicity = 1:

    H           -2.122471348961     1.685664808443    -0.625843794296
    H           -1.973499272685     0.027039959503    -1.191814587947
    H           -2.391550050812     0.367425430027     0.490046930683
    C           -1.781242150597     0.689963856562    -0.350734242101
    H            0.242107042645     1.337809798034    -0.672801319794
    H           -0.168538711869     1.117440574481     1.010593791792
    C           -0.305740150010     0.692486281820     0.015656291316
    H           -0.251363648306    -1.362187929188     0.615779508020
    H            0.209628649166    -1.084124958396    -1.047604471381
    C            0.312766341136    -0.691694701204    -0.035055053918
    H            2.206367592845    -1.689565284664     0.314070106260
    H            1.891777362147    -0.333043482754     1.390407251280
    H            2.353709272065    -0.039418175390    -0.280097669581
    C            1.774537885138    -0.693026465074     0.369903242009

*** Psi4 exiting successfully. Buy a developer a beer!
