                               Psi4 1.1 release

  ==> Input File <==

--------------------------------------------------------------------------

memory 1000 mb

molecule butane {
  symmetry C1
  0 1
  H      5.323   2.315   -9.509
  H      4.386   3.428   -8.540
  H      5.445   2.273   -7.767
  C      4.785   2.436   -8.593
  H      3.093   1.537   -7.619
  H      2.970   1.579   -9.362
  C      3.631   1.416   -8.537
  H      3.665   -0.647   -7.940
  H      4.104   -0.384   -9.610
  C      4.203   -0.012   -8.612
  H      6.088   -0.983   -8.270
  H      5.791   0.381   -7.220
  H      6.230   0.644   -8.890
  C      5.691   0.009   -8.218
  units Angstrom
}

dih_string = "14 10 7 4 20"
set optking fixed_dihedral = $dih_string

optimize('MP2/aug-cc-pvtz')
--------------------------------------------------------------------------

    Molecular point group: c1
  Charge       = 0
  Multiplicity = 1
  Basis Set: AUG-CC-PVTZ
    Blend: AUG-CC-PVTZ
  Basis Set: (AUG-CC-PVTZ AUX)
    Blend: AUG-CC-PVTZ-JKFIT
  @DF-RHF Final Energy:  -157.33560658682254
    Total Energy =                       -157.3356065868225357
  Basis Set: (AUG-CC-PVTZ AUX)
    Blend: AUG-CC-PVTZ-RI
    Molecular point group: c1
  Basis Set: AUG-CC-PVTZ
    Blend: AUG-CC-PVTZ
  Basis Set: (AUG-CC-PVTZ AUX)
    Blend: AUG-CC-PVTZ-JKFIT
  Basis Set: (AUG-CC-PVTZ AUX)
    Blend: AUG-CC-PVTZ-JKFIT
	 Reference Energy          =    -157.3356065868225357 [Eh]
	 Singles Energy            =      -0.0000000000000001 [Eh]
	 Same-Spin Energy          =      -0.1673429610274062 [Eh]
	 Opposite-Spin Energy      =      -0.6420232276991631 [Eh]
	 Correlation Energy        =      -0.8093661887265694 [Eh]
	 Total Energy              =    -158.1449727755490926 [Eh]
	 SCS Total Energy          =    -158.1618154470706656 [Eh]
  @DF-RHF Final Energy:  -157.34412979376103
    Total Energy =                       -157.3441297937610273
  @DF-RHF Final Energy:  -157.34675139289590
    Total Energy =                       -157.3467513928958965
  @DF-RHF Final Energy:  -157.34788332280391
    Total Energy =                       -157.3478833228039093
  @DF-RHF Final Energy:  -157.34833552467734
    Total Energy =                       -157.3483355246773385
  @DF-RHF Final Energy:  -157.34838632793458
    Total Energy =                       -157.3483863279345769
  @DF-RHF Final Energy:  -157.34839505966264
    Total Energy =                       -157.3483950596626357
  Charge       = 0
  Multiplicity = 1
  Basis Set: AUG-CC-PVTZ
    Blend: AUG-CC-PVTZ
  Basis Set: (AUG-CC-PVTZ AUX)
    Blend: AUG-CC-PVTZ-JKFIT

    Orbital Energies (a.u.)
    -----------------------

    Doubly Occupied:

       1A    -11.211848     2A    -11.211269     3A    -11.205301
       4A    -11.205296     5A     -1.070456     6A     -0.975887
       7A     -0.878909     8A     -0.768894     9A     -0.635159
      10A     -0.617361    11A     -0.567096    12A     -0.540021
      13A     -0.525066    14A     -0.510543    15A     -0.463805
      16A     -0.458684    17A     -0.445384

  @DF-RHF Final Energy:  -157.34839582295004

   => Energetics <=

    Nuclear Repulsion Energy =            133.6832464853791578
    One-Electron Energy =                -475.4813276817089331
    Two-Electron Energy =                 184.4496853733797650
    DFT Exchange-Correlation Energy =       0.0000000000000000
    Empirical Dispersion Energy =           0.0000000000000000
    PCM Polarization Energy =               0.0000000000000000
    EFP Energy =                            0.0000000000000000
    Total Energy =                       -157.3483958229500388
  Basis Set: (AUG-CC-PVTZ AUX)
    Blend: AUG-CC-PVTZ-RI
    Molecular point group: c1
  Basis Set: AUG-CC-PVTZ
    Blend: AUG-CC-PVTZ
  Basis Set: (AUG-CC-PVTZ AUX)
    Blend: AUG-CC-PVTZ-JKFIT
  Basis Set: (AUG-CC-PVTZ AUX)
    Blend: AUG-CC-PVTZ-JKFIT
	 Reference Energy          =    -157.3483958229500388 [Eh]
	 Singles Energy            =      -0.0000000000000000 [Eh]
	 Same-Spin Energy          =      -0.1658425035589862 [Eh]
	 Opposite-Spin Energy      =      -0.6406451247836232 [Eh]
	 Correlation Energy        =      -0.8064876283426095 [Eh]
	 Total Energy              =    -158.1548834512926476 [Eh]

	 ================> DF-SCS-MP2 Energies <==================
	-----------------------------------------------------------
	 SCS Same-Spin Scale       =       0.3333333333333333 [-]
	 SCS Opposite-Spin Scale   =       1.2000000000000000 [-]
	 SCS Same-Spin Energy      =      -0.0552808345196621 [Eh]
	 SCS Opposite-Spin Energy  =      -0.7687741497403479 [Eh]
	 SCS Correlation Energy    =      -0.8240549842600099 [Eh]
	 SCS Total Energy          =    -158.1724508072100548 [Eh]
	-----------------------------------------------------------

  -Total Gradient:
     Atom            X                  Y                   Z
    ------   -----------------  -----------------  -----------------
       1        0.000001285478    -0.000004848005     0.000000032599
       2        0.000005562381    -0.000008580891    -0.000000725980
       3        0.000006455918     0.000005070610    -0.000000087031
       4        0.000099159326    -0.000080478654     0.004154082643
       5        0.000014277335    -0.000022016584    -0.000011114718
       6        0.000009097678     0.000011625200     0.000000545347
       7        0.000352886029     0.000372781582    -0.007585391888
       8        0.000014361367    -0.000002815902     0.000003336552
       9       -0.000008263118     0.000024666781     0.000012406737
      10       -0.001729258838    -0.000909589702     0.007346570747
      11       -0.000002529857     0.000010190794     0.000001313365
      12       -0.000002208056     0.000005196350     0.000000250613
      13        0.000007592419    -0.000000147746     0.000002425239
      14        0.001231581940     0.000598946167    -0.003923644227

  **** Optimization is complete! (in 8 steps) ****
    Final optimized geometry and variables:
    Molecular point group: c1

    Geometry (in Angstrom), charge = 0, multiplicity = 1:

    H            0.732108664402     1.540105990707    -1.002706487790
    H           -0.374685122331     2.547445814566    -0.084526139186
    H            0.772465636246     1.515792442604     0.754464853327
    C            0.114083345225     1.575947278355    -0.107315051944
    H           -1.517016521247     0.583904054775     0.813322642239
    H           -1.613526845372     0.600241781818    -0.923669474358
    C           -0.922694612717     0.465339323939    -0.093340991971
    H           -0.991412839054    -1.615494485717     0.473500661703
    H           -0.427356021136    -1.341711325021    -1.149337218246
    C           -0.359227180867    -0.964959375338    -0.128195514885
    H            1.396106158259    -2.149355145375     0.261118174200
    H            1.229496001289    -0.775518824156     1.341675379389
    H            1.755314087780    -0.530671434525    -0.317674475098
    C            1.087087038863    -1.107799828068     0.314895876679

*** Psi4 exiting successfully. Buy a developer a beer!
