                               Psi4 1.1 release

  ==> Input File <==

--------------------------------------------------------------------------

molecule phepyr {
  symmetry C1
  0 1
  C      1.885   -1.036   -0.112
  C      0.807   -0.463   0.561
  C      2.921   -1.631   0.608
  C      0.764   -0.484   1.955
  C      2.878   -1.652   2.002
  C      2.022   0.056   4.846
  C      1.444   -2.278   4.792
  C      1.964   -0.017   6.229
  C      1.412   -2.247   6.177
  C      1.800   -1.079   2.676
  C      1.755   -1.100   4.122
  N      1.666   -1.143   6.915
  H      1.917   -1.021   -1.198
  H      -0.001   -0.002   0.000
  H      3.760   -2.079   0.084
  H      -0.084   -0.033   2.466
  H      3.693   -2.120   2.550
  H      2.267   0.994   4.358
  H      1.230   -3.200   4.261
  H      2.162   0.858   6.839
  H      1.176   -3.139   6.747
  units Angstrom
}

dih_string = "4 10 11 6 285"
set optking fixed_dihedral = $dih_string

optimize('MP2/aug-cc-PVTZ')
--------------------------------------------------------------------------

    Molecular point group: c1
  Charge       = 0
  Multiplicity = 1
  Basis Set: AUG-CC-PVTZ
    Blend: AUG-CC-PVTZ
  Basis Set: (AUG-CC-PVTZ AUX)
    Blend: AUG-CC-PVTZ-JKFIT
  @DF-RHF Final Energy:  -476.39529404783536
    Total Energy =                       -476.3952940478353639
  Basis Set: (AUG-CC-PVTZ AUX)
    Blend: AUG-CC-PVTZ-RI
    Molecular point group: c1
  Basis Set: AUG-CC-PVTZ
    Blend: AUG-CC-PVTZ
  Basis Set: (AUG-CC-PVTZ AUX)
    Blend: AUG-CC-PVTZ-JKFIT
  Basis Set: (AUG-CC-PVTZ AUX)
    Blend: AUG-CC-PVTZ-JKFIT
	 Reference Energy          =    -476.3952940478353639 [Eh]
	 Singles Energy            =      -0.0000000000000002 [Eh]
	 Same-Spin Energy          =      -0.5342628137075273 [Eh]
	 Opposite-Spin Energy      =      -1.6423621535634176 [Eh]
	 Correlation Energy        =      -2.1766249672709450 [Eh]
	 Total Energy              =    -478.5719190151062890 [Eh]
	 SCS Total Energy          =    -478.5442162366806542 [Eh]
  @DF-RHF Final Energy:  -476.40002662832256
    Total Energy =                       -476.4000266283226210
  @DF-RHF Final Energy:  -476.40046221907011
    Total Energy =                       -476.4004622190701639
  @DF-RHF Final Energy:  -476.40043818595854
    Total Energy =                       -476.4004381859584782
  @DF-RHF Final Energy:  -476.40041861271050
    Total Energy =                       -476.4004186127104958
  @DF-RHF Final Energy:  -476.40043414292745
    Total Energy =                       -476.4004341429274518
  @DF-RHF Final Energy:  -476.40043081293385
    Total Energy =                       -476.4004308129337915
  @DF-RHF Final Energy:  -476.40041645899072
    Total Energy =                       -476.4004164589906622
  @DF-RHF Final Energy:  -476.40044519753332
    Total Energy =                       -476.4004451975333723
  @DF-RHF Final Energy:  -476.40043537305047
    Total Energy =                       -476.4004353730505272
  @DF-RHF Final Energy:  -476.40041596612559
    Total Energy =                       -476.4004159661255926
  @DF-RHF Final Energy:  -476.40041612863035
    Total Energy =                       -476.4004161286303543
  Charge       = 0
  Multiplicity = 1
  Basis Set: AUG-CC-PVTZ
    Blend: AUG-CC-PVTZ
  Basis Set: (AUG-CC-PVTZ AUX)
    Blend: AUG-CC-PVTZ-JKFIT

    Orbital Energies (a.u.)
    -----------------------

    Doubly Occupied:

       1A    -15.563260     2A    -11.272863     3A    -11.272837
       4A    -11.264242     5A    -11.251786     6A    -11.243095
       7A    -11.242967     8A    -11.241891     9A    -11.241683
      10A    -11.240284    11A    -11.237709    12A    -11.237627
      13A     -1.259724    14A     -1.174233    15A     -1.107576
      16A     -1.035096    17A     -1.026332    18A     -1.018740
      19A     -0.879618    20A     -0.860651    21A     -0.837389
      22A     -0.807860    23A     -0.731292    24A     -0.688686
      25A     -0.670373    26A     -0.654800    27A     -0.638120
      28A     -0.634161    29A     -0.598054    30A     -0.596766
      31A     -0.582626    32A     -0.542198    33A     -0.527180
      34A     -0.508210    35A     -0.507226    36A     -0.502648
      37A     -0.417955    38A     -0.383822    39A     -0.352301
      40A     -0.344097    41A     -0.340059

  @DF-RHF Final Energy:  -476.40041372386600

   => Energetics <=

    Nuclear Repulsion Energy =            605.5494401408431031
    One-Electron Energy =               -1844.8236334451887615
    Two-Electron Energy =                 762.8737795804797770
    DFT Exchange-Correlation Energy =       0.0000000000000000
    Empirical Dispersion Energy =           0.0000000000000000
    PCM Polarization Energy =               0.0000000000000000
    EFP Energy =                            0.0000000000000000
    Total Energy =                       -476.4004137238659951
  Basis Set: (AUG-CC-PVTZ AUX)
    Blend: AUG-CC-PVTZ-RI
    Molecular point group: c1
  Basis Set: AUG-CC-PVTZ
    Blend: AUG-CC-PVTZ
  Basis Set: (AUG-CC-PVTZ AUX)
    Blend: AUG-CC-PVTZ-JKFIT
  Basis Set: (AUG-CC-PVTZ AUX)
    Blend: AUG-CC-PVTZ-JKFIT
	 Reference Energy          =    -476.4004137238659951 [Eh]
	 Singles Energy            =      -0.0000000000000001 [Eh]
	 Same-Spin Energy          =      -0.5335118996613575 [Eh]
	 Opposite-Spin Energy      =      -1.6402449956515954 [Eh]
	 Correlation Energy        =      -2.1737568953129527 [Eh]
	 Total Energy              =    -478.5741706191789717 [Eh]

	 ================> DF-SCS-MP2 Energies <==================
	-----------------------------------------------------------
	 SCS Same-Spin Scale       =       0.3333333333333333 [-]
	 SCS Opposite-Spin Scale   =       1.2000000000000000 [-]
	 SCS Same-Spin Energy      =      -0.1778372998871192 [Eh]
	 SCS Opposite-Spin Energy  =      -1.9682939947819145 [Eh]
	 SCS Correlation Energy    =      -2.1461312946690336 [Eh]
	 SCS Total Energy          =    -478.5465450185350278 [Eh]
	-----------------------------------------------------------

  -Total Gradient:
     Atom            X                  Y                   Z
    ------   -----------------  -----------------  -----------------
       1       -0.000013957661    -0.000005769938     0.000029145093
       2        0.000014828781    -0.000001760578     0.000002201840
       3        0.000004397272     0.000007717067     0.000006203479
       4       -0.001047853168    -0.001921357332    -0.000097601146
       5       -0.000008378528    -0.000020301782     0.000004446547
       6        0.002148865744    -0.000507386454     0.000055630937
       7       -0.000037111717    -0.000023183793    -0.000052811402
       8       -0.000096610269     0.000015228164    -0.000025693897
       9        0.000171462268    -0.000036622857    -0.000018706998
      10        0.002606845493     0.002559663215     0.000232236179
      11       -0.003679920387    -0.000124796700    -0.000186686885
      12       -0.000041504576     0.000016971920     0.000056607117
      13        0.000001225838     0.000002713664    -0.000008761472
      14       -0.000000747757     0.000000545424    -0.000017561876
      15       -0.000007324773     0.000002078040    -0.000010985711
      16        0.000001723673     0.000014498642     0.000001521080
      17        0.000007738004     0.000010892585     0.000003861031
      18       -0.000003916583    -0.000003041345     0.000011772741
      19       -0.000026396360     0.000007128404     0.000005852927
      20        0.000049674974    -0.000015181372     0.000009816764
      21       -0.000043040269     0.000021965023    -0.000000486341

  **** Optimization is complete! (in 13 steps) ****
    Final optimized geometry and variables:
    Molecular point group: c1

    Geometry (in Angstrom), charge = 0, multiplicity = 1:

    C            0.109921278962     0.037215520525    -3.544206085789
    C           -0.954001046133     0.635011051636    -2.882451420658
    C            1.126466238534    -0.565728172067    -2.815855358947
    C           -0.999470668708     0.632426185753    -1.495502168485
    C            1.079662394290    -0.569613573932    -1.429028762453
    C            0.210901246423     1.143544296798     1.469754803112
    C           -0.304293914788    -1.172267901096     1.394946034512
    C            0.168860738962     1.057533868903     2.853224374509
    C           -0.323574015683    -1.161917201029     2.781442516210
    C            0.021243114097     0.037888120363    -0.757801933937
    C           -0.039252659479     0.007403254823     0.709268811503
    N           -0.093667514129    -0.071137050111     3.516007243273
    H            0.145604991218     0.039251428555    -4.622684365823
    H           -1.750043388592     1.097600581718    -3.445765421694
    H            1.954448253363    -1.032656926229    -3.327158067510
    H           -1.828687550350     1.090191967304    -0.976760019162
    H            1.868484062566    -1.036691320551    -0.858179948529
    H            0.437426915126     2.082424877771     0.987292381782
    H           -0.500530685654    -2.084663749091     0.852112429518
    H            0.361444595485     1.932547272096     3.458175823337
    H           -0.535262863483    -2.069953409973     3.328597187174

*** Psi4 exiting successfully. Buy a developer a beer!
