                               Psi4 1.1 release

  ==> Input File <==

--------------------------------------------------------------------------

memory 5 Gb

molecule phepyrFOH_anion {
  symmetry C1
  -1 1
  C      1.885   -1.036   -0.112
  C      0.807   -0.463   0.561
  C      3.997   -3.563   -0.468
  C      5.157   -1.457   -0.401
  C      1.800   -1.079   2.676
  C      5.091   -4.083   -1.141
  C      6.199   -2.071   -1.076
  C      2.921   -1.631   0.608
  C      4.038   -2.224   -0.095
  C      0.764   -0.484   1.955
  C      2.878   -1.652   2.002
  N      6.195   -3.369   -1.455
  O      -0.227   0.043   2.574
  F      3.866   -2.220   2.709
  H      1.904   -1.013   -1.200
  H      0.011   -0.007   -0.025
  H      3.141   -4.193   -0.248
  H      5.225   -0.410   -0.125
  H      1.791   -1.109   3.764
  H      5.107   -5.121   -1.455
  H      7.094   -1.517   -1.337
  units Angstrom
}

dih_string = "1 8 9 3 270"
set optking fixed_dihedral = $dih_string

optimize('MP2/aug-cc-PVTZ')
--------------------------------------------------------------------------

    Molecular point group: c1
  Charge       = -1
  Multiplicity = 1
  Basis Set: AUG-CC-PVTZ
    Blend: AUG-CC-PVTZ
  Basis Set: (AUG-CC-PVTZ AUX)
    Blend: AUG-CC-PVTZ-JKFIT
  @DF-RHF Final Energy:  -649.60455056685123
    Total Energy =                       -649.6045505668512305
  Basis Set: (AUG-CC-PVTZ AUX)
    Blend: AUG-CC-PVTZ-RI
    Molecular point group: c1
  Basis Set: AUG-CC-PVTZ
    Blend: AUG-CC-PVTZ
  Basis Set: (AUG-CC-PVTZ AUX)
    Blend: AUG-CC-PVTZ-JKFIT
  Basis Set: (AUG-CC-PVTZ AUX)
    Blend: AUG-CC-PVTZ-JKFIT
	 Reference Energy          =    -649.6045505668512305 [Eh]
	 Singles Energy            =      -0.0000000000000006 [Eh]
	 Same-Spin Energy          =      -0.6853269200007390 [Eh]
	 Opposite-Spin Energy      =      -2.0254670237019532 [Eh]
	 Correlation Energy        =      -2.7107939437026927 [Eh]
	 Total Energy              =    -652.3153445105539276 [Eh]
	 SCS Total Energy          =    -652.2635533019605418 [Eh]
  @DF-RHF Final Energy:  -649.61170098021580
    Total Energy =                       -649.6117009802158009
  @DF-RHF Final Energy:  -649.61604078206267
    Total Energy =                       -649.6160407820627825
  @DF-RHF Final Energy:  -649.61752890432706
    Total Energy =                       -649.6175289043271732
  @DF-RHF Final Energy:  -649.61746125688251
    Total Energy =                       -649.6174612568825069
  @DF-RHF Final Energy:  -649.61741645316056
    Total Energy =                       -649.6174164531605584
  Charge       = -1
  Multiplicity = 1
  Basis Set: AUG-CC-PVTZ
    Blend: AUG-CC-PVTZ
  Basis Set: (AUG-CC-PVTZ AUX)
    Blend: AUG-CC-PVTZ-JKFIT

    Orbital Energies (a.u.)
    -----------------------

    Doubly Occupied:

       1A    -26.170146     2A    -20.312395     3A    -15.465912
       4A    -11.183160     5A    -11.173162     6A    -11.173132
       7A    -11.153671     8A    -11.132562     9A    -11.130363
      10A    -11.130316    11A    -11.105062    12A    -11.080771
      13A    -11.060270    14A    -11.059390    15A     -1.480653
      16A     -1.159015    17A     -1.144218    18A     -1.022355
      19A     -0.968708    20A     -0.931295    21A     -0.867887
      22A     -0.846762    23A     -0.754670    24A     -0.743795
      25A     -0.692574    26A     -0.668703    27A     -0.610760
      28A     -0.567032    29A     -0.566662    30A     -0.550827
      31A     -0.549334    32A     -0.543217    33A     -0.506914
      34A     -0.494215    35A     -0.471430    36A     -0.450010
      37A     -0.438225    38A     -0.425661    39A     -0.416302
      40A     -0.379728    41A     -0.375421    42A     -0.365477
      43A     -0.320928    44A     -0.294945    45A     -0.269253
      46A     -0.247098    47A     -0.223670    48A     -0.199396
      49A     -0.118181

  @DF-RHF Final Energy:  -649.61740843330699

   => Energetics <=

    Nuclear Repulsion Energy =            795.7114654932622670
    One-Electron Energy =               -2480.6664827232448260
    Two-Electron Energy =                1035.3376087966755676
    DFT Exchange-Correlation Energy =       0.0000000000000000
    Empirical Dispersion Energy =           0.0000000000000000
    PCM Polarization Energy =               0.0000000000000000
    EFP Energy =                            0.0000000000000000
    Total Energy =                       -649.6174084333069914
  Basis Set: (AUG-CC-PVTZ AUX)
    Blend: AUG-CC-PVTZ-RI
    Molecular point group: c1
  Basis Set: AUG-CC-PVTZ
    Blend: AUG-CC-PVTZ
  Basis Set: (AUG-CC-PVTZ AUX)
    Blend: AUG-CC-PVTZ-JKFIT
  Basis Set: (AUG-CC-PVTZ AUX)
    Blend: AUG-CC-PVTZ-JKFIT
	 Reference Energy          =    -649.6174084333069914 [Eh]
	 Singles Energy            =      -0.0000000000000005 [Eh]
	 Same-Spin Energy          =      -0.6840120985640720 [Eh]
	 Opposite-Spin Energy      =      -2.0240646123365171 [Eh]
	 Correlation Energy        =      -2.7080767109005897 [Eh]
	 Total Energy              =    -652.3254851442076188 [Eh]

	 ================> DF-SCS-MP2 Energies <==================
	-----------------------------------------------------------
	 SCS Same-Spin Scale       =       0.3333333333333333 [-]
	 SCS Opposite-Spin Scale   =       1.2000000000000000 [-]
	 SCS Same-Spin Energy      =      -0.2280040328546906 [Eh]
	 SCS Opposite-Spin Energy  =      -2.4288775348038203 [Eh]
	 SCS Correlation Energy    =      -2.6568815676585116 [Eh]
	 SCS Total Energy          =    -652.2742900009654932 [Eh]
	-----------------------------------------------------------

  -Total Gradient:
     Atom            X                  Y                   Z
    ------   -----------------  -----------------  -----------------
       1       -0.000050257585    -0.000100061608     0.000022898535
       2       -0.000014422770    -0.000014813000     0.000008964765
       3       -0.000043723001     0.000012643501    -0.000128506633
       4        0.000031303900     0.000010738156     0.000000474273
       5        0.000007844335    -0.000021751173     0.000009903107
       6       -0.000002652852    -0.000018766833     0.000066613396
       7       -0.000024786824     0.000035106852     0.000006235684
       8        0.000064735416     0.000126608266    -0.000112442310
       9       -0.000009518178    -0.000065820118     0.000180462758
      10       -0.000015236600     0.000095128625     0.000004613630
      11        0.000037541581    -0.000008192201     0.000029216190
      12        0.000012484830    -0.000012251160    -0.000034488799
      13        0.000041424108    -0.000055306990    -0.000030635307
      14       -0.000020158408     0.000014200430    -0.000009799533
      15       -0.000001706503    -0.000001530191    -0.000001582192
      16       -0.000001990779     0.000000616117    -0.000004088452
      17       -0.000000518402     0.000004237461    -0.000004456553
      18       -0.000000413910    -0.000003142554    -0.000000165785
      19       -0.000009536968     0.000001596717     0.000003511760
      20       -0.000007654792     0.000001230162    -0.000015967182
      21        0.000007243402    -0.000000470454     0.000009238650

  **** Optimization is complete! (in 7 steps) ****
    Final optimized geometry and variables:
    Molecular point group: c1

    Geometry (in Angstrom), charge = -1, multiplicity = 1:

    C           -1.364026048012     0.784336880885    -0.748794425696
    C           -2.434304134868     1.351587642107    -0.087931674883
    C            0.833724268677    -1.769622947424    -1.153270464353
    C            1.970161264097     0.299863998088    -1.096800000253
    C           -1.450852029556     0.729608088151     2.011264612933
    C            1.923075871015    -2.296876897342    -1.829841797782
    C            3.015000046978    -0.307849445094    -1.776143392938
    C           -0.303530658170     0.172895689530    -0.068883742898
    C            0.832856389135    -0.432171463009    -0.765849162871
    C           -2.549985494977     1.362713613291     1.342374195460
    C           -0.406996626934     0.177815513523     1.314882815104
    N            3.012712427697    -1.591448528594    -2.149847870609
    O           -3.526481276416     1.879703008751     1.958474022043
    F            0.610934990016    -0.412076796085     2.022736987435
    H           -1.331502496563     0.806052894732    -1.831423233551
    H           -3.233148685798     1.813741134840    -0.651215336148
    H           -0.019993461799    -2.389177507874    -0.921749370021
    H            2.029215186705     1.341907905146    -0.819403038474
    H           -1.451372242606     0.689815525910     3.089768389304
    H            1.924020012540    -3.335959539378    -2.132108318388
    H            3.898839368917     0.260656493305    -2.034394691230

*** Psi4 exiting successfully. Buy a developer a beer!
