                              Psi4 1.0.0 Driver

  ==> Input File <==

--------------------------------------------------------------------------

memory 1000 mb

molecule butane {
  symmetry C1
  0 1
  H      1.604   0.760   -8.260
  H      1.745   2.388   -8.880
  H      2.043   1.024   -9.930
  C      2.142   1.395   -8.932
  H      4.169   2.051   -9.210
  H      3.731   1.788   -7.539
  C      3.631   1.416   -8.537
  H      3.492   -0.656   -9.084
  H      5.109   -0.004   -9.180
  C      4.203   -0.012   -8.612
  H      4.892   -1.516   -7.242
  H      3.589   -0.533   -6.621
  H      5.206   0.120   -6.717
  C      4.495   -0.524   -7.190
  units Angstrom
}

dih_string = "4 7 10 14 250"
set optking fixed_dihedral = $dih_string

optimize('MP2/6-31G(d)')
--------------------------------------------------------------------------

    Molecular point group: c1
  Charge       = 0
  Multiplicity = 1
  Basis Set: 6-31G(D)
  Basis Set:
  @DF-RHF Final Energy:  -157.28820538514299
    Total Energy =                       -157.2882053851429589
  Basis Set:
    Molecular point group: c1
  Basis Set: 6-31G(D)
  Basis Set:
  Basis Set:
	 Reference Energy          =    -157.2882053851429873 [Eh]
	 Singles Energy            =      -0.0000000000000000 [Eh]
	 Same-Spin Energy          =      -0.1244420157965611 [Eh]
	 Opposite-Spin Energy      =      -0.4204110098779941 [Eh]
	 Correlation Energy        =      -0.5448530256745552 [Eh]
	 Total Energy              =    -157.8330584108175287 [Eh]
	 SCS Total Energy          =    -157.8341792689287786 [Eh]
  Basis Set: 6-31G(D)
  Basis Set:
  @DF-RHF Final Energy:  -157.29119747618483
    Total Energy =                       -157.2911974761849763
  Basis Set:
  Basis Set: 6-31G(D)
  Basis Set:
  @DF-RHF Final Energy:  -157.29207173215622
    Total Energy =                       -157.2920717321560460
  @DF-RHF Final Energy:  -157.29236132440764
    Total Energy =                       -157.2923613244078638
  @DF-RHF Final Energy:  -157.29237655613164
    Total Energy =                       -157.2923765561315292
  @DF-RHF Final Energy:  -157.29238341948465
    Total Energy =                       -157.2923834194845654
  @DF-RHF Final Energy:  -157.29237870814924
    Total Energy =                       -157.2923787081493572
	 Singles Energy            =      -0.0000000000000000 [Eh]
	 Same-Spin Energy          =      -0.1242965955135174 [Eh]
	 Opposite-Spin Energy      =      -0.4224256523024863 [Eh]
	 Correlation Energy        =      -0.5467222478160038 [Eh]
	 Total Energy              =    -157.8391009559652503 [Eh]
	 SCS Total Energy          =    -157.8407216894167391 [Eh]
  Charge       = 0
  Multiplicity = 1
  Basis Set: 6-31G(D)
  Basis Set:

    Orbital Energies (a.u.)
    -----------------------

    Doubly Occupied:

       1A    -11.215478     2A    -11.214918     3A    -11.210550
       4A    -11.210544     5A     -1.067969     6A     -0.978351
       7A     -0.861583     8A     -0.784540     9A     -0.626540
      10A     -0.604203    11A     -0.578422    12A     -0.546555
      13A     -0.511763    14A     -0.507196    15A     -0.466737
      16A     -0.453933    17A     -0.453053

  @DF-RHF Final Energy:  -157.29238217251302

   => Energetics <=

    Nuclear Repulsion Energy =            131.3332846962977953
    One-Electron Energy =                -470.6666666257931411
    Two-Electron Energy =                 182.0409997569822167
    DFT Exchange-Correlation Energy =       0.0000000000000000
    Empirical Dispersion Energy =           0.0000000000000000
    PCM Polarization Energy =               0.0000000000000000
    EFP Energy =                            0.0000000000000000
    Total Energy =                       -157.2923821725131006
  Basis Set:
    Molecular point group: c1
  Basis Set: 6-31G(D)
  Basis Set:
  Basis Set:
	 Reference Energy          =    -157.2923821725130153 [Eh]
	 Singles Energy            =      -0.0000000000000000 [Eh]
	 Same-Spin Energy          =      -0.1242965118966650 [Eh]
	 Opposite-Spin Energy      =      -0.4224222716999952 [Eh]
	 Correlation Energy        =      -0.5467187835966603 [Eh]
	 Total Energy              =    -157.8391009561096894 [Eh]

	 ================> DF-SCS-MP2 Energies <==================
	-----------------------------------------------------------
	 SCS Same-Spin Scale       =       0.3333333333333333 [-]
	 SCS Opposite-Spin Scale   =       1.2000000000000000 [-]
	 SCS Same-Spin Energy      =      -0.0414321706322217 [Eh]
	 SCS Opposite-Spin Energy  =      -0.5069067260399942 [Eh]
	 SCS Correlation Energy    =      -0.5483388966722159 [Eh]
	 SCS Total Energy          =    -157.8407210691852356 [Eh]
	-----------------------------------------------------------

  -Total Gradient:
     Atom            X                  Y                   Z
    ------   -----------------  -----------------  -----------------
       1        0.000008943231     0.000002699203     0.000004095261
       2       -0.000002140092     0.000003848929    -0.000002926240
       3       -0.000004765499    -0.000003158911    -0.000001630499
       4        0.000452948527     0.000196905487    -0.001573533073
       5       -0.000014913068    -0.000002506062     0.000005532001
       6       -0.000002796152     0.000007161441     0.000000305333
       7       -0.000036868187     0.000020376928     0.002150213033
       8        0.000002805834    -0.000007185046    -0.000000512251
       9       -0.000006630780    -0.000007007231     0.000013040745
      10       -0.001900823034    -0.000882560640    -0.000484490200
      11        0.000004378440    -0.000002895985     0.000001044022
      12       -0.000001989258     0.000000332869    -0.000010405920
      13       -0.000000280953     0.000000841046     0.000005884465
      14        0.001502130991     0.000673147971    -0.000106616679

  **** Optimization is complete! (in 8 steps) ****
    Final optimized geometry and variables:
    Molecular point group: c1

    Geometry (in Angstrom), charge = 0, multiplicity = 1:

    H           -2.066382229914     0.190305536051     0.005267939553
    H           -1.914532864173     1.838770486147    -0.616909965233
    H           -1.602403845189     0.458572336098    -1.678609720341
    C           -1.482122623435     0.834926420982    -0.658801900463
    H            0.539653352560     1.495594190329    -0.938495201233
    H            0.095249941448     1.282998160752     0.740168627911
    C           -0.010383566261     0.838456483413    -0.256191769841
    H           -0.064641596553    -1.269379488307    -0.766491614113
    H            1.537438296201    -0.571283022673    -0.847773845791
    C            0.612212673604    -0.570641806504    -0.261373619847
    H            1.330585786123    -2.098628353927     1.119108450373
    H            0.016189137021    -1.102656796813     1.757859039904
    H            1.649092044369    -0.437781986468     1.638455086353
    C            0.920585687152    -1.084811139841     1.141716686842

*** Psi4 exiting successfully. Buy a developer a beer!
