                              Psi4 1.0.0 Driver

  ==> Input File <==

--------------------------------------------------------------------------

memory 1000 mb

molecule butane {
  symmetry C1
  0 1
  H      1.604   0.760   -8.260
  H      1.745   2.388   -8.880
  H      2.043   1.024   -9.930
  C      2.142   1.395   -8.932
  H      4.169   2.051   -9.210
  H      3.731   1.788   -7.539
  C      3.631   1.416   -8.537
  H      4.081   -0.495   -7.665
  H      3.682   -0.566   -9.364
  C      4.203   -0.012   -8.612
  H      6.097   -0.940   -9.019
  H      6.222   0.606   -8.216
  H      5.822   0.534   -9.914
  C      5.700   0.052   -8.967
  units Angstrom
}

dih_string = "4 7 10 14 150"
set optking fixed_dihedral = $dih_string

optimize('MP2/6-31G(d)')
--------------------------------------------------------------------------

    Molecular point group: c1
  Charge       = 0
  Multiplicity = 1
  Basis Set: 6-31G(D)
  Basis Set:
  @DF-RHF Final Energy:  -157.29098341590540
    Total Energy =                       -157.2909834159055720
  Basis Set:
    Molecular point group: c1
  Basis Set: 6-31G(D)
  Basis Set:
  Basis Set:
	 Reference Energy          =    -157.2909834159054014 [Eh]
	 Singles Energy            =      -0.0000000000000000 [Eh]
	 Same-Spin Energy          =      -0.1243857402613419 [Eh]
	 Opposite-Spin Energy      =      -0.4202669848637329 [Eh]
	 Correlation Energy        =      -0.5446527251250748 [Eh]
	 Total Energy              =    -157.8356361410304771 [Eh]
	 SCS Total Energy          =    -157.8367657111623146 [Eh]
  Basis Set: 6-31G(D)
  Basis Set:
  @DF-RHF Final Energy:  -157.29392700250938
    Total Energy =                       -157.2939270025094061
  Basis Set:
  Basis Set: 6-31G(D)
  Basis Set:
  @DF-RHF Final Energy:  -157.29477285697155
    Total Energy =                       -157.2947728569716617
  @DF-RHF Final Energy:  -157.29507601929191
    Total Energy =                       -157.2950760192918267
  @DF-RHF Final Energy:  -157.29516175107244
    Total Energy =                       -157.2951617510723850
  @DF-RHF Final Energy:  -157.29518936105492
    Total Energy =                       -157.2951893610550940
  @DF-RHF Final Energy:  -157.29516431598717
    Total Energy =                       -157.2951643159871935
	 Singles Energy            =      -0.0000000000000000 [Eh]
	 Same-Spin Energy          =      -0.1243770557170462 [Eh]
	 Opposite-Spin Energy      =      -0.4223039008166329 [Eh]
	 Correlation Energy        =      -0.5466809565336792 [Eh]
	 Total Energy              =    -157.8418452725208567 [Eh]
	 SCS Total Energy          =    -157.8433880155394604 [Eh]
  Charge       = 0
  Multiplicity = 1
  Basis Set: 6-31G(D)
  Basis Set:

    Orbital Energies (a.u.)
    -----------------------

    Doubly Occupied:

       1A    -11.215637     2A    -11.215054     3A    -11.210393
       4A    -11.210387     5A     -1.069210     6A     -0.979664
       7A     -0.859304     8A     -0.786551     9A     -0.635319
      10A     -0.582609    11A     -0.582422    12A     -0.561056
      13A     -0.512081    14A     -0.498982    15A     -0.465675
      16A     -0.458291    17A     -0.455293

  @DF-RHF Final Energy:  -157.29517429753935

   => Energetics <=

    Nuclear Repulsion Energy =            130.7985557599795925
    One-Electron Energy =                -469.5916054865944034
    Two-Electron Energy =                 181.4978754290754921
    DFT Exchange-Correlation Energy =       0.0000000000000000
    Empirical Dispersion Energy =           0.0000000000000000
    PCM Polarization Energy =               0.0000000000000000
    EFP Energy =                            0.0000000000000000
    Total Energy =                       -157.2951742975393188
  Basis Set:
    Molecular point group: c1
  Basis Set: 6-31G(D)
  Basis Set:
  Basis Set:
	 Reference Energy          =    -157.2951742975393472 [Eh]
	 Singles Energy            =      -0.0000000000000000 [Eh]
	 Same-Spin Energy          =      -0.1243734930955612 [Eh]
	 Opposite-Spin Energy      =      -0.4222981460568367 [Eh]
	 Correlation Energy        =      -0.5466716391523979 [Eh]
	 Total Energy              =    -157.8418459366917546 [Eh]

	 ================> DF-SCS-MP2 Energies <==================
	-----------------------------------------------------------
	 SCS Same-Spin Scale       =       0.3333333333333333 [-]
	 SCS Opposite-Spin Scale   =       1.2000000000000000 [-]
	 SCS Same-Spin Energy      =      -0.0414578310318537 [Eh]
	 SCS Opposite-Spin Energy  =      -0.5067577752682041 [Eh]
	 SCS Correlation Energy    =      -0.5482156063000578 [Eh]
	 SCS Total Energy          =    -157.8433899038394088 [Eh]
	-----------------------------------------------------------

  -Total Gradient:
     Atom            X                  Y                   Z
    ------   -----------------  -----------------  -----------------
       1       -0.000008944039    -0.000004501581    -0.000002632071
       2       -0.000006114104     0.000001518299     0.000001924027
       3        0.000000865909     0.000003959278    -0.000000953929
       4        0.000807492828     0.000511394729    -0.003073537933
       5       -0.000001294267    -0.000000461189     0.000016204909
       6       -0.000007445935     0.000004260499    -0.000007118929
       7       -0.001393412053    -0.000754980320     0.003045527006
       8        0.000008012405    -0.000003682293    -0.000007448269
       9        0.000001644747    -0.000001020288     0.000016171678
      10        0.001316945820     0.000429527949     0.003142816697
      11        0.000005205125    -0.000002234008     0.000002058267
      12        0.000007704434     0.000004866572    -0.000001225432
      13       -0.000001786780    -0.000003725442    -0.000001514167
      14       -0.000728874089    -0.000184922206    -0.003130271853

  **** Optimization is complete! (in 8 steps) ****
    Final optimized geometry and variables:
    Molecular point group: c1

    Geometry (in Angstrom), charge = 0, multiplicity = 1:

    H           -2.370391811096     0.027526707182     0.496105127114
    H           -2.227955837449     1.692243335495    -0.081902363731
    H           -1.928640214346     0.342013630609    -1.185548200036
    C           -1.795249084830     0.690657639221    -0.157568492324
    H            0.217658859621     1.351822168603    -0.471461753022
    H           -0.176959429328     1.113835727427     1.218559819159
    C           -0.317420435299     0.687714780342     0.218796995075
    H            0.147863309098    -1.235817617685     1.098969028269
    H           -0.203997275750    -1.294584098606    -0.616046125547
    C            0.312750173601    -0.707299585919     0.153286953863
    H            2.231528944396    -1.677236637191    -0.203259011731
    H            2.357251235667    -0.082573931783     0.549684214464
    H            1.958163493282    -0.218221973349    -1.166226765356
    C            1.799539625428    -0.672669170603    -0.184186135515

*** Psi4 exiting successfully. Buy a developer a beer!
