                               Psi4 1.1 release

  ==> Input File <==

--------------------------------------------------------------------------

memory 5 Gb

molecule phepyrOH_zwitterion {
  symmetry C1
  0 1
  C      1.885   -1.036   -0.112
  C      2.878   -1.652   2.002
  C      0.807   -0.463   0.561
  C      1.800   -1.079   2.676
  C      4.084   -2.205   -1.481
  C      5.074   -2.820   0.628
  C      5.169   -2.784   -2.124
  C      6.134   -3.383   -0.069
  C      2.921   -1.631   0.608
  C      4.040   -2.226   -0.090
  C      0.764   -0.484   1.955
  N      6.150   -3.349   -1.408
  O      -0.227   0.042   2.574
  H      1.904   -1.011   -1.199
  H      3.678   -2.112   2.577
  H      0.011   -0.006   -0.025
  H      1.791   -1.108   3.764
  H      3.291   -1.749   -2.066
  H      5.066   -2.850   1.713
  H      5.287   -2.814   -3.198
  H      6.978   -3.864   0.405
  H      6.938   -3.769   -1.901
  units Angstrom
}

dih_string = "1 9 10 5 0.001"
set optking fixed_dihedral = $dih_string

optimize('MP2/aug-cc-PVTZ')
--------------------------------------------------------------------------

    Molecular point group: c1
  Charge       = 0
  Multiplicity = 1
  Basis Set: AUG-CC-PVTZ
    Blend: AUG-CC-PVTZ
  Basis Set: (AUG-CC-PVTZ AUX)
    Blend: AUG-CC-PVTZ-JKFIT
  @DF-RHF Final Energy:  -551.21577921082553
    Total Energy =                       -551.2157792108255308
  Basis Set: (AUG-CC-PVTZ AUX)
    Blend: AUG-CC-PVTZ-RI
    Molecular point group: c1
  Basis Set: AUG-CC-PVTZ
    Blend: AUG-CC-PVTZ
  Basis Set: (AUG-CC-PVTZ AUX)
    Blend: AUG-CC-PVTZ-JKFIT
  Basis Set: (AUG-CC-PVTZ AUX)
    Blend: AUG-CC-PVTZ-JKFIT
	 Reference Energy          =    -551.2157792108255308 [Eh]
	 Singles Energy            =      -0.0000000000000001 [Eh]
	 Same-Spin Energy          =      -0.6065615305713823 [Eh]
	 Opposite-Spin Energy      =      -1.8422122772914264 [Eh]
	 Correlation Energy        =      -2.4487738078628087 [Eh]
	 Total Energy              =    -553.6645530186883661 [Eh]
	 SCS Total Energy          =    -553.6286211204323990 [Eh]
  @DF-RHF Final Energy:  -551.22882214362266
    Total Energy =                       -551.2288221436226650
  @DF-RHF Final Energy:  -551.23899820074041
    Total Energy =                       -551.2389982007404114
  @DF-RHF Final Energy:  -551.24598526693137
    Total Energy =                       -551.2459852669313705
  @DF-RHF Final Energy:  -551.24942766103516
    Total Energy =                       -551.2494276610351562
  @DF-RHF Final Energy:  -551.24946509355334
    Total Energy =                       -551.2494650935533400
  @DF-RHF Final Energy:  -551.24943698263542
    Total Energy =                       -551.2494369826354159
  Charge       = 0
  Multiplicity = 1
  Basis Set: AUG-CC-PVTZ
    Blend: AUG-CC-PVTZ
  Basis Set: (AUG-CC-PVTZ AUX)
    Blend: AUG-CC-PVTZ-JKFIT

    Orbital Energies (a.u.)
    -----------------------

    Doubly Occupied:

       1A    -20.481827     2A    -15.659154     3A    -11.328529
       4A    -11.328506     5A    -11.294551     6A    -11.282126
       7A    -11.261417     8A    -11.261400     9A    -11.238004
      10A    -11.237978    11A    -11.225704    12A    -11.204570
      13A    -11.204554    14A     -1.343262    15A     -1.315869
      16A     -1.166105    17A     -1.107141    18A     -1.088086
      19A     -1.014029    20A     -0.996910    21A     -0.905540
      22A     -0.895282    23A     -0.814676    24A     -0.811772
      25A     -0.797465    26A     -0.718534    27A     -0.707881
      28A     -0.683138    29A     -0.655082    30A     -0.623855
      31A     -0.623159    32A     -0.619672    33A     -0.612231
      34A     -0.585690    35A     -0.557402    36A     -0.548057
      37A     -0.528271    38A     -0.523625    39A     -0.484877
      40A     -0.479686    41A     -0.408305    42A     -0.396163
      43A     -0.374273    44A     -0.346750    45A     -0.250314

  @DF-RHF Final Energy:  -551.24943776124087

   => Energetics <=

    Nuclear Repulsion Energy =            697.8715921874270407
    One-Electron Energy =               -2132.2592136773241691
    Two-Electron Energy =                 883.1381837286562586
    DFT Exchange-Correlation Energy =       0.0000000000000000
    Empirical Dispersion Energy =           0.0000000000000000
    PCM Polarization Energy =               0.0000000000000000
    EFP Energy =                            0.0000000000000000
    Total Energy =                       -551.2494377612408698
  Basis Set: (AUG-CC-PVTZ AUX)
    Blend: AUG-CC-PVTZ-RI
    Molecular point group: c1
  Basis Set: AUG-CC-PVTZ
    Blend: AUG-CC-PVTZ
  Basis Set: (AUG-CC-PVTZ AUX)
    Blend: AUG-CC-PVTZ-JKFIT
  Basis Set: (AUG-CC-PVTZ AUX)
    Blend: AUG-CC-PVTZ-JKFIT
	 Reference Energy          =    -551.2494377612408698 [Eh]
	 Singles Energy            =      -0.0000000000000003 [Eh]
	 Same-Spin Energy          =      -0.5986590709959992 [Eh]
	 Opposite-Spin Energy      =      -1.8354745538873010 [Eh]
	 Correlation Energy        =      -2.4341336248833008 [Eh]
	 Total Energy              =    -553.6835713861241857 [Eh]

	 ================> DF-SCS-MP2 Energies <==================
	-----------------------------------------------------------
	 SCS Same-Spin Scale       =       0.3333333333333333 [-]
	 SCS Opposite-Spin Scale   =       1.2000000000000000 [-]
	 SCS Same-Spin Energy      =      -0.1995530236653331 [Eh]
	 SCS Opposite-Spin Energy  =      -2.2025694646647609 [Eh]
	 SCS Correlation Energy    =      -2.4021224883300945 [Eh]
	 SCS Total Energy          =    -553.6515602495709345 [Eh]
	-----------------------------------------------------------

  -Total Gradient:
     Atom            X                  Y                   Z
    ------   -----------------  -----------------  -----------------
       1        0.000033410810    -0.000024863225    -0.000014981814
       2        0.000029153835    -0.000025092037    -0.000033837407
       3       -0.000081445829    -0.000044624731    -0.000006962562
       4       -0.000058547963    -0.000058115397     0.000041311131
       5       -0.000029200866     0.000017165469     0.000013823317
       6       -0.000029895169     0.000020251939     0.000020928736
       7        0.000041380825    -0.000021370162     0.000003541768
       8        0.000019993074    -0.000008887474    -0.000043251638
       9       -0.000042266429     0.000009345777     0.000024707282
      10        0.000045210114    -0.000033777810    -0.000032832085
      11        0.000099732399     0.000218350275     0.000016482547
      12       -0.000003770320     0.000003455632     0.000004132343
      13       -0.000028885183    -0.000079252577    -0.000009666890
      14        0.000007610969     0.000016623078     0.000024062846
      15       -0.000000004666     0.000022075868    -0.000010859389
      16       -0.000000792334    -0.000003755479     0.000015906531
      17       -0.000012001157     0.000003878652    -0.000010063626
      18        0.000015175726    -0.000010427971     0.000003723701
      19        0.000001494118    -0.000002782795    -0.000009317102
      20       -0.000002001234     0.000001405789     0.000005340369
      21       -0.000005785919     0.000003389266    -0.000000774870
      22        0.000001435181    -0.000002992081    -0.000001413184

  **** Optimization is complete! (in 8 steps) ****
    Final optimized geometry and variables:
    Molecular point group: c1

    Geometry (in Angstrom), charge = 0, multiplicity = 1:

    C           -1.325958487374     0.749278948272    -0.544518594031
    C           -0.329304723621     0.130989596974     1.578015403395
    C           -2.378960467221     1.309694299234     0.102138885248
    C           -1.374365098175     0.686491763552     2.241574246059
    C            0.943298864006    -0.458139750251    -1.945639588429
    C            1.928311403794    -1.069163953727     0.152427554896
    C            2.000332002006    -1.021057348175    -2.582003053570
    C            2.968191520505    -1.621451121968    -0.520462661344
    C           -0.247596282782     0.131671056423     0.154537540932
    C            0.831725844268    -0.442381929950    -0.519433250133
    C           -2.479839241298     1.319509462280     1.548710439366
    N            3.010765485062    -1.601260134204    -1.879965081902
    O           -3.438454408346     1.828451613547     2.147091172146
    H           -1.318490080692     0.779824870942    -1.623104341755
    H            0.458035480932    -0.322264030101     2.160258859012
    H           -3.185415396166     1.772230882341    -0.448057932792
    H           -1.415606148605     0.674334587148     3.321007157727
    H            0.181936397177    -0.018050011537    -2.565188486868
    H            1.961976879662    -1.122258065448     1.226324685668
    H            2.090907035908    -1.036542206897    -3.655857723030
    H            3.797444944742    -2.095166862370    -0.020925135609
    H            3.787247821216    -2.014298976810    -2.364801886217

*** Psi4 exiting successfully. Buy a developer a beer!
