                               Psi4 1.1 release

  ==> Input File <==

--------------------------------------------------------------------------

molecule phepyr {
  symmetry C1
  0 1
  C      1.885   -1.036   -0.112
  C      0.807   -0.463   0.561
  C      2.921   -1.631   0.608
  C      0.764   -0.484   1.955
  C      2.878   -1.652   2.002
  C      0.579   -1.444   4.779
  C      2.888   -0.779   4.860
  C      0.588   -1.452   6.164
  C      2.794   -0.816   6.242
  C      1.800   -1.079   2.676
  C      1.755   -1.100   4.122
  N      1.670   -1.145   6.915
  H      1.917   -1.021   -1.198
  H      -0.001   -0.002   0.000
  H      3.760   -2.079   0.084
  H      -0.084   -0.033   2.466
  H      3.693   -2.120   2.550
  H      -0.326   -1.702   4.237
  H      3.824   -0.506   4.382
  H      -0.303   -1.715   6.724
  H      3.650   -0.573   6.863
  units Angstrom
}

dih_string = "4 10 11 6 45"
set optking fixed_dihedral = $dih_string

optimize('MP2/aug-cc-PVTZ')
--------------------------------------------------------------------------

    Molecular point group: c1
  Charge       = 0
  Multiplicity = 1
  Basis Set: AUG-CC-PVTZ
    Blend: AUG-CC-PVTZ
  Basis Set: (AUG-CC-PVTZ AUX)
    Blend: AUG-CC-PVTZ-JKFIT
  @DF-RHF Final Energy:  -476.39723520967317
    Total Energy =                       -476.3972352096732266
  Basis Set: (AUG-CC-PVTZ AUX)
    Blend: AUG-CC-PVTZ-RI
    Molecular point group: c1
  Basis Set: AUG-CC-PVTZ
    Blend: AUG-CC-PVTZ
  Basis Set: (AUG-CC-PVTZ AUX)
    Blend: AUG-CC-PVTZ-JKFIT
  Basis Set: (AUG-CC-PVTZ AUX)
    Blend: AUG-CC-PVTZ-JKFIT
	 Reference Energy          =    -476.3972352096731697 [Eh]
	 Singles Energy            =      -0.0000000000000001 [Eh]
	 Same-Spin Energy          =      -0.5349217195093930 [Eh]
	 Opposite-Spin Energy      =      -1.6428620195682331 [Eh]
	 Correlation Energy        =      -2.1777837390776260 [Eh]
	 Total Energy              =    -478.5750189487508237 [Eh]
	 SCS Total Energy          =    -478.5469768729915359 [Eh]
  @DF-RHF Final Energy:  -476.40193523214469
    Total Energy =                       -476.4019352321447514
  @DF-RHF Final Energy:  -476.40231263121763
    Total Energy =                       -476.4023126312176828
  @DF-RHF Final Energy:  -476.40227819134452
    Total Energy =                       -476.4022781913445215
  Charge       = 0
  Multiplicity = 1
  Basis Set: AUG-CC-PVTZ
    Blend: AUG-CC-PVTZ
  Basis Set: (AUG-CC-PVTZ AUX)
    Blend: AUG-CC-PVTZ-JKFIT

    Orbital Energies (a.u.)
    -----------------------

    Doubly Occupied:

       1A    -15.562180     2A    -11.272443     3A    -11.272422
       4A    -11.264974     5A    -11.252722     6A    -11.244279
       7A    -11.244177     8A    -11.243308     9A    -11.242761
      10A    -11.241893    11A    -11.237231    12A    -11.237187
      13A     -1.259162    14A     -1.175716    15A     -1.108284
      16A     -1.036751    17A     -1.026431    18A     -1.018915
      19A     -0.881265    20A     -0.866464    21A     -0.831867
      22A     -0.808678    23A     -0.733894    24A     -0.686413
      25A     -0.672940    26A     -0.659996    27A     -0.633055
      28A     -0.630573    29A     -0.602212    30A     -0.594115
      31A     -0.583316    32A     -0.545976    33A     -0.525824
      34A     -0.512806    35A     -0.510635    36A     -0.498973
      37A     -0.418166    38A     -0.400280    39A     -0.349485
      40A     -0.348088    41A     -0.327483

  @DF-RHF Final Energy:  -476.40226242518418

   => Energetics <=

    Nuclear Repulsion Energy =            606.3139890860344394
    One-Electron Energy =               -1846.3058228271711414
    Two-Electron Energy =                 763.5895713159526395
    DFT Exchange-Correlation Energy =       0.0000000000000000
    Empirical Dispersion Energy =           0.0000000000000000
    PCM Polarization Energy =               0.0000000000000000
    EFP Energy =                            0.0000000000000000
    Total Energy =                       -476.4022624251841762
  Basis Set: (AUG-CC-PVTZ AUX)
    Blend: AUG-CC-PVTZ-RI
    Molecular point group: c1
  Basis Set: AUG-CC-PVTZ
    Blend: AUG-CC-PVTZ
  Basis Set: (AUG-CC-PVTZ AUX)
    Blend: AUG-CC-PVTZ-JKFIT
  Basis Set: (AUG-CC-PVTZ AUX)
    Blend: AUG-CC-PVTZ-JKFIT
	 Reference Energy          =    -476.4022624251841762 [Eh]
	 Singles Energy            =      -0.0000000000000001 [Eh]
	 Same-Spin Energy          =      -0.5341723825770920 [Eh]
	 Opposite-Spin Energy      =      -1.6408094984851054 [Eh]
	 Correlation Energy        =      -2.1749818810621973 [Eh]
	 Total Energy              =    -478.5772443062463708 [Eh]

	 ================> DF-SCS-MP2 Energies <==================
	-----------------------------------------------------------
	 SCS Same-Spin Scale       =       0.3333333333333333 [-]
	 SCS Opposite-Spin Scale   =       1.2000000000000000 [-]
	 SCS Same-Spin Energy      =      -0.1780574608590307 [Eh]
	 SCS Opposite-Spin Energy  =      -1.9689713981821264 [Eh]
	 SCS Correlation Energy    =      -2.1470288590411570 [Eh]
	 SCS Total Energy          =    -478.5492912842253190 [Eh]
	-----------------------------------------------------------

  -Total Gradient:
     Atom            X                  Y                   Z
    ------   -----------------  -----------------  -----------------
       1       -0.000000815193     0.000024026672    -0.000006163224
       2        0.000028659038     0.000002486276    -0.000022283203
       3       -0.000022979770    -0.000016265599    -0.000006155267
       4        0.000725952547     0.001323910251     0.000050803488
       5        0.000026009823    -0.000027643021     0.000002195683
       6        0.000452344464    -0.001490591635     0.000007806869
       7       -0.000009473132     0.000050193704     0.000010551095
       8        0.000041707852     0.000169141713     0.000081666533
       9       -0.000043885956    -0.000162123846     0.000061290106
      10       -0.000864276740    -0.002650793357    -0.000007846673
      11       -0.000284938880     0.002795460709    -0.000044981934
      12       -0.000006834688    -0.000009100711    -0.000045518912
      13       -0.000006841564    -0.000006148049    -0.000013225634
      14       -0.000024559658    -0.000004135640    -0.000005915728
      15        0.000023671116     0.000006108763     0.000000109427
      16       -0.000020323051    -0.000012886608     0.000011502195
      17       -0.000002446526    -0.000006139042     0.000005260461
      18       -0.000020592604    -0.000002663712    -0.000038597192
      19        0.000012395940     0.000022430315    -0.000030576091
      20        0.000017917729    -0.000041637846    -0.000002904667
      21       -0.000020690743     0.000036370662    -0.000007017333

  **** Optimization is complete! (in 5 steps) ****
    Final optimized geometry and variables:
    Molecular point group: c1

    Geometry (in Angstrom), charge = 0, multiplicity = 1:

    C            0.112894058689     0.054006292896    -3.545411992707
    C           -0.969416425814     0.610138917167    -2.876490634807
    C            1.148424498087    -0.522950286454    -2.822164143517
    C           -1.016418850577     0.586876271226    -1.490800692553
    C            1.101025798824    -0.544281037757    -1.436465524618
    C           -1.188784659789    -0.334165687968     1.397483440805
    C            1.097315570865     0.293235681841     1.469546510928
    C           -1.179112416054    -0.343227867626     2.783311150567
    C            1.012485698278     0.256347856802     2.852360305128
    C            0.015280074229     0.004674251781    -0.755876212123
    C           -0.027633564239    -0.002763463555     0.706191173347
    N           -0.102295791318    -0.054691332775     3.517770058833
    H            0.149840037442     0.071355085120    -4.623779937670
    H           -1.771714931290     1.069045303543    -3.433719189402
    H            1.989532850202    -0.960720992349    -3.337613294411
    H           -1.847781299516     1.038523340150    -0.969897269668
    H            1.897775440669    -1.009294059802    -0.874988532567
    H           -2.087109999096    -0.598677763884     0.860003252120
    H            2.024543387276     0.570331661497     0.990815624886
    H           -2.074631612368    -0.603498897533     3.330242207085
    H            1.878044021791     0.493539491214     3.455166759461

*** Psi4 exiting successfully. Buy a developer a beer!
