                               Psi4 1.1 release

  ==> Input File <==

--------------------------------------------------------------------------

memory 5 Gb

molecule phepyrFOH_neutral {
  symmetry C1
  0 1
  C      1.885   -1.036   -0.112
  C      0.807   -0.463   0.561
  C      4.717   -3.304   0.459
  C      4.435   -1.719   -1.328
  C      1.800   -1.079   2.676
  C      5.778   -3.838   -0.254
  C      5.509   -2.323   -1.961
  C      2.921   -1.631   0.608
  C      4.038   -2.225   -0.095
  C      0.764   -0.484   1.955
  C      2.878   -1.652   2.002
  N      6.193   -3.373   -1.454
  O      -0.289   0.076   2.612
  F      3.866   -2.220   2.709
  H      1.904   -1.012   -1.199
  H      0.002   -0.002   -0.006
  H      4.436   -3.727   1.418
  H      3.929   -0.877   -1.790
  H      1.772   -1.099   3.762
  H      6.339   -4.682   0.133
  H      5.858   -1.966   -2.924
  H      -0.175   -0.018   3.571
  units Angstrom
}

dih_string = "1 8 9 3 210"
set optking fixed_dihedral = $dih_string

optimize('MP2/aug-cc-PVTZ')
--------------------------------------------------------------------------

    Molecular point group: c1
  Charge       = 0
  Multiplicity = 1
  Basis Set: AUG-CC-PVTZ
    Blend: AUG-CC-PVTZ
  Basis Set: (AUG-CC-PVTZ AUX)
    Blend: AUG-CC-PVTZ-JKFIT
  @DF-RHF Final Energy:  -650.16936561582293
    Total Energy =                       -650.1693656158229260
  Basis Set: (AUG-CC-PVTZ AUX)
    Blend: AUG-CC-PVTZ-RI
    Molecular point group: c1
  Basis Set: AUG-CC-PVTZ
    Blend: AUG-CC-PVTZ
  Basis Set: (AUG-CC-PVTZ AUX)
    Blend: AUG-CC-PVTZ-JKFIT
  Basis Set: (AUG-CC-PVTZ AUX)
    Blend: AUG-CC-PVTZ-JKFIT
	 Reference Energy          =    -650.1693656158229260 [Eh]
	 Singles Energy            =      -0.0000000000000002 [Eh]
	 Same-Spin Energy          =      -0.6787361945779131 [Eh]
	 Opposite-Spin Energy      =      -2.0208070285924542 [Eh]
	 Correlation Energy        =      -2.6995432231703673 [Eh]
	 Total Energy              =    -652.8689088389933204 [Eh]
	 SCS Total Energy          =    -652.8205794483264981 [Eh]
  @DF-RHF Final Energy:  -650.17647061620266
    Total Energy =                       -650.1764706162025504
  @DF-RHF Final Energy:  -650.17949208443906
    Total Energy =                       -650.1794920844390617
  @DF-RHF Final Energy:  -650.18044131172348
    Total Energy =                       -650.1804413117233707
  @DF-RHF Final Energy:  -650.18077976410075
    Total Energy =                       -650.1807797641008619
  @DF-RHF Final Energy:  -650.18096026879357
    Total Energy =                       -650.1809602687935694
  @DF-RHF Final Energy:  -650.18102368760424
    Total Energy =                       -650.1810236876042381
  Charge       = 0
  Multiplicity = 1
  Basis Set: AUG-CC-PVTZ
    Blend: AUG-CC-PVTZ
  Basis Set: (AUG-CC-PVTZ AUX)
    Blend: AUG-CC-PVTZ-JKFIT

    Orbital Energies (a.u.)
    -----------------------

    Doubly Occupied:

       1A    -26.324693     2A    -20.612931     3A    -15.560693
       4A    -11.349371     5A    -11.328859     6A    -11.270974
       7A    -11.269785     8A    -11.269715     9A    -11.263916
      10A    -11.256923    11A    -11.251998    12A    -11.242446
      13A    -11.237381    14A    -11.234597    15A     -1.643673
      16A     -1.430847    17A     -1.257889    18A     -1.186644
      19A     -1.112600    20A     -1.045823    21A     -1.032992
      22A     -1.025404    23A     -0.895839    24A     -0.880874
      25A     -0.852695    26A     -0.830155    27A     -0.775259
      28A     -0.749442    29A     -0.726419    30A     -0.711455
      31A     -0.697263    32A     -0.670088    33A     -0.660717
      34A     -0.638840    35A     -0.635750    36A     -0.617219
      37A     -0.613088    38A     -0.594316    39A     -0.582489
      40A     -0.549546    41A     -0.544489    42A     -0.539173
      43A     -0.514135    44A     -0.501935    45A     -0.417273
      46A     -0.403497    47A     -0.362897    48A     -0.347022
      49A     -0.317547

  @DF-RHF Final Energy:  -650.18105489582092

   => Energetics <=

    Nuclear Repulsion Energy =            814.0353173089089296
    One-Electron Energy =               -2502.7535965533966191
    Two-Electron Energy =                1038.5372243486669959
    DFT Exchange-Correlation Energy =       0.0000000000000000
    Empirical Dispersion Energy =           0.0000000000000000
    PCM Polarization Energy =               0.0000000000000000
    EFP Energy =                            0.0000000000000000
    Total Energy =                       -650.1810548958208074
  Basis Set: (AUG-CC-PVTZ AUX)
    Blend: AUG-CC-PVTZ-RI
    Molecular point group: c1
  Basis Set: AUG-CC-PVTZ
    Blend: AUG-CC-PVTZ
  Basis Set: (AUG-CC-PVTZ AUX)
    Blend: AUG-CC-PVTZ-JKFIT
  Basis Set: (AUG-CC-PVTZ AUX)
    Blend: AUG-CC-PVTZ-JKFIT
	 Reference Energy          =    -650.1810548958209210 [Eh]
	 Singles Energy            =      -0.0000000000000002 [Eh]
	 Same-Spin Energy          =      -0.6770837208461753 [Eh]
	 Opposite-Spin Energy      =      -2.0174262078553507 [Eh]
	 Correlation Energy        =      -2.6945099287015259 [Eh]
	 Total Energy              =    -652.8755648245224847 [Eh]

	 ================> DF-SCS-MP2 Energies <==================
	-----------------------------------------------------------
	 SCS Same-Spin Scale       =       0.3333333333333333 [-]
	 SCS Opposite-Spin Scale   =       1.2000000000000000 [-]
	 SCS Same-Spin Energy      =      -0.2256945736153917 [Eh]
	 SCS Opposite-Spin Energy  =      -2.4209114494264208 [Eh]
	 SCS Correlation Energy    =      -2.6466060230418127 [Eh]
	 SCS Total Energy          =    -652.8276609188627617 [Eh]
	-----------------------------------------------------------

  -Total Gradient:
     Atom            X                  Y                   Z
    ------   -----------------  -----------------  -----------------
       1        0.000886380836     0.001724469138     0.000047448813
       2        0.000042172522     0.000017955087    -0.000017365781
       3        0.001207400305     0.001302451360     0.000920841679
       4       -0.000006011336    -0.000007778343    -0.000018594717
       5       -0.000026776819    -0.000017100949     0.000042116163
       6        0.000006682605     0.000000465029    -0.000015374022
       7        0.000041867168     0.000069805504     0.000041401125
       8       -0.000704266016    -0.001955276299     0.000404861384
       9       -0.001417690179    -0.001126915879    -0.001353767653
      10       -0.000000226124    -0.000048002507     0.000002886071
      11       -0.000027278517     0.000170014430    -0.000087241665
      12       -0.000025216972    -0.000042048150    -0.000011910204
      13       -0.000005770095     0.000011363581    -0.000008858381
      14        0.000036101036    -0.000072580608     0.000044470064
      15        0.000003864025    -0.000008489066    -0.000003626703
      16       -0.000013101051     0.000003838604     0.000014548089
      17       -0.000000917221    -0.000005811072     0.000003655905
      18       -0.000008701949    -0.000002829492    -0.000000497024
      19        0.000013274687    -0.000005487424    -0.000002310327
      20        0.000007761795     0.000009083136     0.000009158107
      21       -0.000010372201    -0.000015969280    -0.000011363754
      22        0.000000823488    -0.000001156794    -0.000000477170

  **** Optimization is complete! (in 8 steps) ****
    Final optimized geometry and variables:
    Molecular point group: c1

    Geometry (in Angstrom), charge = 0, multiplicity = 1:

    C           -1.334377026459     0.689764526421    -0.774350487656
    C           -2.414285856631     1.291719672690    -0.158997649135
    C            1.581201143756    -1.561921526668    -0.233030334961
    C            1.281481837550     0.015418728792    -1.975765409466
    C           -1.452491974202     0.778332506735     1.975284073091
    C            2.646067974286    -2.076250522112    -0.955436809974
    C            2.359320120486    -0.564433868867    -2.623467072319
    C           -0.286244325444     0.105545919776    -0.057242592520
    C            0.856706359469    -0.489107440196    -0.748120639410
    C           -2.476451624248     1.336632929077     1.226616663323
    C           -0.391002592635     0.182187703096     1.325936153798
    N            3.046258869514    -1.600248137669    -2.136401158504
    O           -3.558386530946     1.936106539064     1.789619015700
    F            0.594497492015    -0.310216064892     2.101790039510
    H           -1.312281891040     0.637484845069    -1.852004793814
    H           -3.216510935979     1.721504408634    -0.736760045000
    H            1.310167037670    -2.011008695903     0.707408219809
    H            0.794300511961     0.871417290383    -2.416736564595
    H           -1.454957084301     0.803756773693     3.054346033332
    H            3.205299260455    -2.914529327129    -0.564207552536
    H            2.691114133205    -0.174300297553    -3.575551630669
    H           -3.480173817005     1.898637696543     2.747746011250

*** Psi4 exiting successfully. Buy a developer a beer!
