                               Psi4 1.1 release

  ==> Input File <==

--------------------------------------------------------------------------

memory 5 Gb

molecule phepyrOH_cation {
  symmetry C1
  1 1
  C      1.885   -1.036   -0.112
  C      2.878   -1.652   2.002
  C      0.807   -0.463   0.561
  C      1.800   -1.079   2.676
  C      4.834   -1.445   -0.924
  C      4.322   -3.578   0.071
  C      5.901   -2.042   -1.582
  C      5.402   -4.121   -0.612
  C      2.921   -1.631   0.608
  C      4.040   -2.225   -0.090
  C      0.764   -0.484   1.955
  N      6.151   -3.347   -1.409
  O      -0.288   0.076   2.612
  H      1.904   -1.012   -1.199
  H      3.678   -2.112   2.578
  H      0.003   -0.001   -0.006
  H      1.772   -1.098   3.762
  H      4.637   -0.387   -1.068
  H      3.719   -4.211   0.715
  H      6.570   -1.514   -2.247
  H      5.695   -5.160   -0.547
  H      6.938   -3.766   -1.902
  H      -0.175   -0.018   3.571
  units Angstrom
}

dih_string = "1 9 10 5 60"
set optking fixed_dihedral = $dih_string

optimize('MP2/aug-cc-PVTZ')
--------------------------------------------------------------------------

    Molecular point group: c1
  Charge       = 1
  Multiplicity = 1
  Basis Set: AUG-CC-PVTZ
    Blend: AUG-CC-PVTZ
  Basis Set: (AUG-CC-PVTZ AUX)
    Blend: AUG-CC-PVTZ-JKFIT
  @DF-RHF Final Energy:  -551.67300782798884
    Total Energy =                       -551.6730078279888403
  Basis Set: (AUG-CC-PVTZ AUX)
    Blend: AUG-CC-PVTZ-RI
    Molecular point group: c1
  Basis Set: AUG-CC-PVTZ
    Blend: AUG-CC-PVTZ
  Basis Set: (AUG-CC-PVTZ AUX)
    Blend: AUG-CC-PVTZ-JKFIT
  Basis Set: (AUG-CC-PVTZ AUX)
    Blend: AUG-CC-PVTZ-JKFIT
	 Reference Energy          =    -551.6730078279888403 [Eh]
	 Singles Energy            =      -0.0000000000000003 [Eh]
	 Same-Spin Energy          =      -0.5961528696813486 [Eh]
	 Opposite-Spin Energy      =      -1.8247774018295233 [Eh]
	 Correlation Energy        =      -2.4209302715108723 [Eh]
	 Total Energy              =    -554.0939380994997236 [Eh]
	 SCS Total Energy          =    -554.0614583334113377 [Eh]
  @DF-RHF Final Energy:  -551.67749968396390
    Total Energy =                       -551.6774996839639016
  @DF-RHF Final Energy:  -551.67847799048070
    Total Energy =                       -551.6784779904807010
  @DF-RHF Final Energy:  -551.67862454971714
    Total Energy =                       -551.6786245497171421
  @DF-RHF Final Energy:  -551.67865311776029
    Total Energy =                       -551.6786531177602910
  @DF-RHF Final Energy:  -551.67866999527587
    Total Energy =                       -551.6786699952758681
  @DF-RHF Final Energy:  -551.67864913011488
    Total Energy =                       -551.6786491301148772
  @DF-RHF Final Energy:  -551.67863998185135
    Total Energy =                       -551.6786399818513473
  @DF-RHF Final Energy:  -551.67846390409534
    Total Energy =                       -551.6784639040953380
  @DF-RHF Final Energy:  -551.67862085266790
    Total Energy =                       -551.6786208526679047
  Charge       = 1
  Multiplicity = 1
  Basis Set: AUG-CC-PVTZ
    Blend: AUG-CC-PVTZ
  Basis Set: (AUG-CC-PVTZ AUX)
    Blend: AUG-CC-PVTZ-JKFIT

    Orbital Energies (a.u.)
    -----------------------

    Doubly Occupied:

       1A    -20.700762     2A    -15.835998     3A    -11.484496
       4A    -11.484079     5A    -11.449570     6A    -11.426051
       7A    -11.413820     8A    -11.413782     9A    -11.373512
      10A    -11.370820    11A    -11.368593    12A    -11.351528
      13A    -11.344615    14A     -1.523439    15A     -1.512844
      16A     -1.318220    17A     -1.264983    18A     -1.242059
      19A     -1.154440    20A     -1.150073    21A     -1.065901
      22A     -1.057724    23A     -0.975726    24A     -0.965444
      25A     -0.949891    26A     -0.872168    27A     -0.860542
      28A     -0.854471    29A     -0.820133    30A     -0.802990
      31A     -0.788307    32A     -0.774309    33A     -0.753279
      34A     -0.730588    35A     -0.718674    36A     -0.707685
      37A     -0.704501    38A     -0.686404    39A     -0.655115
      40A     -0.624190    41A     -0.613924    42A     -0.571840
      43A     -0.541361    44A     -0.468914    45A     -0.435289

  @DF-RHF Final Energy:  -551.67855202855799

   => Energetics <=

    Nuclear Repulsion Energy =            713.3723866077808680
    One-Electron Energy =               -2149.7357622263989470
    Two-Electron Energy =                 884.6848235900602049
    DFT Exchange-Correlation Energy =       0.0000000000000000
    Empirical Dispersion Energy =           0.0000000000000000
    PCM Polarization Energy =               0.0000000000000000
    EFP Energy =                            0.0000000000000000
    Total Energy =                       -551.6785520285579878
  Basis Set: (AUG-CC-PVTZ AUX)
    Blend: AUG-CC-PVTZ-RI
    Molecular point group: c1
  Basis Set: AUG-CC-PVTZ
    Blend: AUG-CC-PVTZ
  Basis Set: (AUG-CC-PVTZ AUX)
    Blend: AUG-CC-PVTZ-JKFIT
  Basis Set: (AUG-CC-PVTZ AUX)
    Blend: AUG-CC-PVTZ-JKFIT
	 Reference Energy          =    -551.6785520285579878 [Eh]
	 Singles Energy            =      -0.0000000000000004 [Eh]
	 Same-Spin Energy          =      -0.5957688459718337 [Eh]
	 Opposite-Spin Energy      =      -1.8232966027644730 [Eh]
	 Correlation Energy        =      -2.4190654487363070 [Eh]
	 Total Energy              =    -554.0976174772943068 [Eh]

	 ================> DF-SCS-MP2 Energies <==================
	-----------------------------------------------------------
	 SCS Same-Spin Scale       =       0.3333333333333333 [-]
	 SCS Opposite-Spin Scale   =       1.2000000000000000 [-]
	 SCS Same-Spin Energy      =      -0.1985896153239445 [Eh]
	 SCS Opposite-Spin Energy  =      -2.1879559233173675 [Eh]
	 SCS Correlation Energy    =      -2.3865455386413124 [Eh]
	 SCS Total Energy          =    -554.0650975671992455 [Eh]
	-----------------------------------------------------------

  -Total Gradient:
     Atom            X                  Y                   Z
    ------   -----------------  -----------------  -----------------
       1       -0.003271521240    -0.005352155836    -0.000113960038
       2        0.000062086927     0.000035644555     0.000037567868
       3        0.000068957769    -0.000057956830    -0.000194675943
       4       -0.000086964995    -0.000049397861    -0.000062217897
       5        0.004027606026     0.001326171359     0.004730022922
       6        0.000095627130     0.000000477377    -0.000027161404
       7        0.000037009867     0.000039824232    -0.000008872960
       8       -0.000035516330    -0.000040543544     0.000051663120
       9        0.006834672179     0.008546634847     0.002351922300
      10       -0.007763506520    -0.004512742421    -0.007055458387
      11        0.000018322220     0.000157790862     0.000277032360
      12        0.000021346259     0.000026824008    -0.000012089419
      13        0.000059424840    -0.000059583702    -0.000129544378
      14        0.000023201593    -0.000001815220    -0.000037537063
      15        0.000023514704    -0.000047980990     0.000006173804
      16       -0.000046652540     0.000016668947     0.000021309854
      17       -0.000004530808    -0.000001292870     0.000054937264
      18       -0.000020246717     0.000059898751     0.000007682932
      19       -0.000032860886    -0.000032434509     0.000079306872
      20        0.000001038514     0.000015759539    -0.000025463345
      21       -0.000009046884    -0.000041299843     0.000008359221
      22        0.000020443393    -0.000020000773    -0.000034019000
      23       -0.000022404520    -0.000008490080     0.000075021332

  **** Optimization is complete! (in 11 steps) ****
    Final optimized geometry and variables:
    Molecular point group: c1

    Geometry (in Angstrom), charge = 1, multiplicity = 1:

    C           -1.252491827899     0.819458050316    -0.552817416845
    C           -0.302260475209     0.057825858460     1.525759350778
    C           -2.330808567291     1.344428926614     0.129044975997
    C           -1.368527848120     0.606925021419     2.213140793361
    C            1.669224845229     0.280846083000    -1.470576502925
    C            1.203856638742    -1.782942426119    -0.354235602799
    C            2.722667508108    -0.322424993429    -2.114151424463
    C            2.266999229137    -2.357114086665    -1.008621656056
    C           -0.215229332301     0.190963449606     0.140175755742
    C            0.864232842147    -0.447232660921    -0.589155951254
    C           -2.388345131212     1.250932119815     1.517197543527
    N            2.986574625569    -1.615848379894    -1.866473269937
    O           -3.462049283076     1.798487950502     2.116652992896
    H           -1.221256525220     0.884083760143    -1.630943962208
    H            0.483993071693    -0.440798429457     2.074098310623
    H           -3.143729432172     1.823124663855    -0.393777377050
    H           -1.411243537159     0.532824483601     3.290206383197
    H            1.471827628098     1.325620142674    -1.650283339275
    H            0.620607078777    -2.381266717421     0.327224583672
    H            3.376899567462     0.185557674116    -2.802938709418
    H            2.565815603197    -3.384494108164    -0.882844081338
    H            3.766960403708    -2.049871085313    -2.343285090526
    H           -3.411972423566     1.679703464824     3.071468269980

*** Psi4 exiting successfully. Buy a developer a beer!
