                              Psi4 1.0.0 Driver

  ==> Input File <==

--------------------------------------------------------------------------

memory 1000 mb

molecule butane {
  symmetry C1
  0 1
  H      1.604   0.760   -8.260
  H      1.745   2.388   -8.880
  H      2.043   1.024   -9.930
  C      2.142   1.395   -8.932
  H      4.169   2.051   -9.210
  H      3.731   1.788   -7.539
  C      3.631   1.416   -8.537
  H      3.428   -0.718   -8.400
  H      4.589   -0.191   -9.593
  C      4.203   -0.012   -8.612
  H      5.732   -1.159   -7.632
  H      4.949   0.011   -6.598
  H      6.111   0.539   -7.791
  C      5.335   -0.167   -7.580
  units Angstrom
}

dih_string = "4 7 10 14 210"
set optking fixed_dihedral = $dih_string

optimize('MP2/6-31G(d)')
--------------------------------------------------------------------------

    Molecular point group: c1
  Charge       = 0
  Multiplicity = 1
  Basis Set: 6-31G(D)
  Basis Set:
  @DF-RHF Final Energy:  -157.29098515306737
    Total Energy =                       -157.2909851530672825
  Basis Set:
    Molecular point group: c1
  Basis Set: 6-31G(D)
  Basis Set:
  Basis Set:
	 Reference Energy          =    -157.2909851530673677 [Eh]
	 Singles Energy            =      -0.0000000000000000 [Eh]
	 Same-Spin Energy          =      -0.1243866664766638 [Eh]
	 Opposite-Spin Energy      =      -0.4202717941039683 [Eh]
	 Correlation Energy        =      -0.5446584605806322 [Eh]
	 Total Energy              =    -157.8356436136479886 [Eh]
	 SCS Total Energy          =    -157.8367735281510136 [Eh]
  Basis Set: 6-31G(D)
  Basis Set:
  @DF-RHF Final Energy:  -157.29391901919905
    Total Energy =                       -157.2939190191989098
  Basis Set:
  Basis Set: 6-31G(D)
  Basis Set:
  @DF-RHF Final Energy:  -157.29476206634510
    Total Energy =                       -157.2947620663448447
  @DF-RHF Final Energy:  -157.29507661192019
    Total Energy =                       -157.2950766119200807
  @DF-RHF Final Energy:  -157.29516025418056
    Total Energy =                       -157.2951602541804164
  @DF-RHF Final Energy:  -157.29518323809711
    Total Energy =                       -157.2951832380972803
  @DF-RHF Final Energy:  -157.29516641523139
    Total Energy =                       -157.2951664152315061
	 Singles Energy            =      -0.0000000000000000 [Eh]
	 Same-Spin Energy          =      -0.1243766498015892 [Eh]
	 Opposite-Spin Energy      =      -0.4223023203805045 [Eh]
	 Correlation Energy        =      -0.5466789701820937 [Eh]
	 Total Energy              =    -157.8418453854134782 [Eh]
	 SCS Total Energy          =    -157.8433880829551867 [Eh]
  Charge       = 0
  Multiplicity = 1
  Basis Set: 6-31G(D)
  Basis Set:

    Orbital Energies (a.u.)
    -----------------------

    Doubly Occupied:

       1A    -11.215637     2A    -11.215055     3A    -11.210398
       4A    -11.210393     5A     -1.069209     6A     -0.979661
       7A     -0.859299     8A     -0.786548     9A     -0.635319
      10A     -0.582606    11A     -0.582423    12A     -0.561053
      13A     -0.512078    14A     -0.498979    15A     -0.465678
      16A     -0.458289    17A     -0.455290

  @DF-RHF Final Energy:  -157.29517355796722

   => Energetics <=

    Nuclear Repulsion Energy =            130.7981904392664489
    One-Electron Energy =                -469.5908998388916871
    Two-Electron Energy =                 181.4975358416580207
    DFT Exchange-Correlation Energy =       0.0000000000000000
    Empirical Dispersion Energy =           0.0000000000000000
    PCM Polarization Energy =               0.0000000000000000
    EFP Energy =                            0.0000000000000000
    Total Energy =                       -157.2951735579671890
  Basis Set:
    Molecular point group: c1
  Basis Set: 6-31G(D)
  Basis Set:
  Basis Set:
	 Reference Energy          =    -157.2951735579672174 [Eh]
	 Singles Energy            =      -0.0000000000000000 [Eh]
	 Same-Spin Energy          =      -0.1243733954997444 [Eh]
	 Opposite-Spin Energy      =      -0.4222990011710187 [Eh]
	 Correlation Energy        =      -0.5466723966707631 [Eh]
	 Total Energy              =    -157.8418459546379893 [Eh]

	 ================> DF-SCS-MP2 Energies <==================
	-----------------------------------------------------------
	 SCS Same-Spin Scale       =       0.3333333333333333 [-]
	 SCS Opposite-Spin Scale   =       1.2000000000000000 [-]
	 SCS Same-Spin Energy      =      -0.0414577984999148 [Eh]
	 SCS Opposite-Spin Energy  =      -0.5067588014052223 [Eh]
	 SCS Correlation Energy    =      -0.5482165999051372 [Eh]
	 SCS Total Energy          =    -157.8433901578723635 [Eh]
	-----------------------------------------------------------

  -Total Gradient:
     Atom            X                  Y                   Z
    ------   -----------------  -----------------  -----------------
       1       -0.000003780266    -0.000001666928     0.000010315094
       2       -0.000006152334     0.000012012055    -0.000004166567
       3       -0.000009941418    -0.000008810198    -0.000012525288
       4       -0.000797121746    -0.000446982109     0.003079582223
       5       -0.000013118544     0.000002779983    -0.000000745179
       6        0.000008273149     0.000002470118    -0.000014332235
       7        0.000297417473     0.000253932556    -0.003400673872
       8        0.000007874222     0.000005398839    -0.000013888366
       9        0.000008577860    -0.000005162188     0.000009357331
      10        0.002619196548     0.001198713022    -0.001850411546
      11        0.000009360214    -0.000009909119    -0.000001517398
      12       -0.000006659764    -0.000003524249     0.000007677106
      13        0.000013232692     0.000010407014     0.000005536479
      14       -0.002127158084    -0.001009658796     0.002185792217

  **** Optimization is complete! (in 8 steps) ****
    Final optimized geometry and variables:
    Molecular point group: c1

    Geometry (in Angstrom), charge = 0, multiplicity = 1:

    H           -2.280178828121     0.135855024221     0.157239869526
    H           -2.111567834391     1.762943892975    -0.517291965297
    H           -1.836609996615     0.347246098604    -1.540013634207
    C           -1.696002816162     0.751393490840    -0.532667137653
    H            0.347956918605     1.424706623586    -0.778437977473
    H           -0.135126009302     1.141106379064     0.881319433421
    C           -0.223103560787     0.743570400235    -0.137515800191
    H           -0.378783106314    -1.397028226629     0.044089500260
    H            0.747313122566    -0.879280253312    -1.193826323767
    C            0.398944599820    -0.656004933949    -0.179122116598
    H            1.976989092296    -1.829961145826     0.759629192405
    H            1.168660839960    -0.689360335842     1.844282689989
    H            2.330732870530    -0.101188339417     0.650233650357
    C            1.534490775666    -0.831823532167     0.823502681419

*** Psi4 exiting successfully. Buy a developer a beer!
