                               Psi4 1.1 release

  ==> Input File <==

--------------------------------------------------------------------------

memory 5 Gb

molecule phepyrOH_cation {
  symmetry C1
  1 1
  C      1.885   -1.036   -0.112
  C      2.878   -1.652   2.002
  C      0.807   -0.463   0.561
  C      1.800   -1.079   2.676
  C      4.440   -1.719   -1.322
  C      4.716   -3.305   0.469
  C      5.516   -2.309   -1.970
  C      5.786   -3.855   -0.224
  C      2.921   -1.631   0.608
  C      4.040   -2.225   -0.090
  C      0.764   -0.484   1.955
  N      6.150   -3.348   -1.409
  O      -0.288   0.076   2.612
  H      1.904   -1.012   -1.199
  H      3.678   -2.112   2.578
  H      0.003   -0.001   -0.006
  H      1.772   -1.098   3.762
  H      3.931   -0.877   -1.782
  H      4.425   -3.721   1.429
  H      5.897   -1.982   -2.928
  H      6.368   -4.693   0.134
  H      6.938   -3.767   -1.902
  H      -1.092   0.017   2.071
  units Angstrom
}

dih_string = "3 11 13 23 30"
set optking fixed_dihedral = $dih_string

optimize('MP2/aug-cc-PVTZ')
--------------------------------------------------------------------------

    Molecular point group: c1
  Charge       = 1
  Multiplicity = 1
  Basis Set: AUG-CC-PVTZ
    Blend: AUG-CC-PVTZ
  Basis Set: (AUG-CC-PVTZ AUX)
    Blend: AUG-CC-PVTZ-JKFIT
  @DF-RHF Final Energy:  -551.67455951772297
    Total Energy =                       -551.6745595177229688
  Basis Set: (AUG-CC-PVTZ AUX)
    Blend: AUG-CC-PVTZ-RI
    Molecular point group: c1
  Basis Set: AUG-CC-PVTZ
    Blend: AUG-CC-PVTZ
  Basis Set: (AUG-CC-PVTZ AUX)
    Blend: AUG-CC-PVTZ-JKFIT
  Basis Set: (AUG-CC-PVTZ AUX)
    Blend: AUG-CC-PVTZ-JKFIT
	 Reference Energy          =    -551.6745595177229688 [Eh]
	 Singles Energy            =      -0.0000000000000002 [Eh]
	 Same-Spin Energy          =      -0.5965582616277821 [Eh]
	 Opposite-Spin Energy      =      -1.8253043607182691 [Eh]
	 Correlation Energy        =      -2.4218626223460511 [Eh]
	 Total Energy              =    -554.0964221400689667 [Eh]
	 SCS Total Energy          =    -554.0637775044608588 [Eh]
  @DF-RHF Final Energy:  -551.67991286813071
    Total Energy =                       -551.6799128681307138
  @DF-RHF Final Energy:  -551.68111162416471
    Total Energy =                       -551.6811116241647142
  @DF-RHF Final Energy:  -551.68113932908568
    Total Energy =                       -551.6811393290856813
  @DF-RHF Final Energy:  -551.68116643841824
    Total Energy =                       -551.6811664384182450
  Charge       = 1
  Multiplicity = 1
  Basis Set: AUG-CC-PVTZ
    Blend: AUG-CC-PVTZ
  Basis Set: (AUG-CC-PVTZ AUX)
    Blend: AUG-CC-PVTZ-JKFIT

    Orbital Energies (a.u.)
    -----------------------

    Doubly Occupied:

       1A    -20.704987     2A    -15.826931     3A    -11.478984
       4A    -11.478926     5A    -11.449680     6A    -11.434023
       7A    -11.409021     8A    -11.408767     9A    -11.380006
      10A    -11.377045    11A    -11.373770    12A    -11.355720
      13A    -11.349728    14A     -1.527542    15A     -1.506011
      16A     -1.318676    17A     -1.266642    18A     -1.237107
      19A     -1.157342    20A     -1.156399    21A     -1.062070
      22A     -1.057742    23A     -0.978027    24A     -0.961423
      25A     -0.954283    26A     -0.872030    27A     -0.861901
      28A     -0.855603    29A     -0.819735    30A     -0.800020
      31A     -0.782444    32A     -0.770717    33A     -0.758596
      34A     -0.737428    35A     -0.724435    36A     -0.712476
      37A     -0.701856    38A     -0.679196    39A     -0.661897
      40A     -0.637035    41A     -0.616511    42A     -0.569931
      43A     -0.538745    44A     -0.473897    45A     -0.438945

  @DF-RHF Final Energy:  -551.68117658654796

   => Energetics <=

    Nuclear Repulsion Energy =            713.4558176958138347
    One-Electron Energy =               -2149.8254892307763839
    Two-Electron Energy =                 884.6884949484144727
    DFT Exchange-Correlation Energy =       0.0000000000000000
    Empirical Dispersion Energy =           0.0000000000000000
    PCM Polarization Energy =               0.0000000000000000
    EFP Energy =                            0.0000000000000000
    Total Energy =                       -551.6811765865479629
  Basis Set: (AUG-CC-PVTZ AUX)
    Blend: AUG-CC-PVTZ-RI
    Molecular point group: c1
  Basis Set: AUG-CC-PVTZ
    Blend: AUG-CC-PVTZ
  Basis Set: (AUG-CC-PVTZ AUX)
    Blend: AUG-CC-PVTZ-JKFIT
  Basis Set: (AUG-CC-PVTZ AUX)
    Blend: AUG-CC-PVTZ-JKFIT
	 Reference Energy          =    -551.6811765865479629 [Eh]
	 Singles Energy            =      -0.0000000000000002 [Eh]
	 Same-Spin Energy          =      -0.5957183076113876 [Eh]
	 Opposite-Spin Energy      =      -1.8233545505115309 [Eh]
	 Correlation Energy        =      -2.4190728581229184 [Eh]
	 Total Energy              =    -554.1002494446709079 [Eh]

	 ================> DF-SCS-MP2 Energies <==================
	-----------------------------------------------------------
	 SCS Same-Spin Scale       =       0.3333333333333333 [-]
	 SCS Opposite-Spin Scale   =       1.2000000000000000 [-]
	 SCS Same-Spin Energy      =      -0.1985727692037959 [Eh]
	 SCS Opposite-Spin Energy  =      -2.1880254606138370 [Eh]
	 SCS Correlation Energy    =      -2.3865982298176327 [Eh]
	 SCS Total Energy          =    -554.0677748163656133 [Eh]
	-----------------------------------------------------------

  -Total Gradient:
     Atom            X                  Y                   Z
    ------   -----------------  -----------------  -----------------
       1       -0.000085586221     0.000014984092    -0.000029727645
       2        0.000006250545     0.000058284101     0.000116836844
       3        0.001759018202     0.002657900170     0.000231417877
       4        0.000077445117    -0.000022495962     0.000011758108
       5        0.000087419846     0.000010837150    -0.000077946977
       6        0.000056857130    -0.000119307272    -0.000029929331
       7       -0.000011409620     0.000047451552     0.000007562576
       8       -0.000044417676    -0.000028622192     0.000030311708
       9       -0.000024546247    -0.000002916664    -0.000000944711
      10       -0.000005869574     0.000049372739     0.000037665400
      11       -0.003028794170    -0.005114940489    -0.000058265454
      12       -0.000013206447     0.000010923969     0.000003243310
      13        0.002314814664     0.006060197164    -0.001724283581
      14        0.000061839333    -0.000041924370    -0.000016018273
      15        0.000039966209    -0.000012648256    -0.000057102916
      16       -0.000010318404     0.000006475245     0.000014467881
      17       -0.000039844572     0.000002547252    -0.000005798898
      18       -0.000060689086     0.000009034627     0.000031814789
      19       -0.000040821653     0.000039442748     0.000019102773
      20       -0.000001318514    -0.000014782398    -0.000008246626
      21        0.000019305471     0.000008870208    -0.000001187398
      22       -0.000007063752     0.000003449543     0.000005069124
      23       -0.001049030582    -0.003622132955     0.001500201437

  **** Optimization is complete! (in 6 steps) ****
    Final optimized geometry and variables:
    Molecular point group: c1

    Geometry (in Angstrom), charge = 1, multiplicity = 1:

    C           -1.271548442741     0.754858643678    -0.564391631972
    C           -0.323594150914     0.079551601720     1.541328526251
    C           -2.344663447127     1.315889657717     0.097391081854
    C           -1.391324780800     0.642963768829     2.205779395350
    C            1.290327205821    -0.002062988545    -1.806517687698
    C            1.608267532368    -1.524658678846     0.004680343491
    C            2.359110607248    -0.570885937013    -2.450643871521
    C            2.673694629785    -2.071493468678    -0.663685477854
    C           -0.244684865772     0.124312262604     0.144711523811
    C            0.877560679332    -0.464024249634    -0.548976742452
    C           -2.418106133139     1.249744727368     1.487005675451
    N            3.020170161028    -1.584314626898    -1.866767066631
    O           -3.402185361429     1.832788225528     2.199661757134
    H           -1.255500959155     0.783295761356    -1.643353097506
    H            0.473876615742    -0.360606968306     2.120491196044
    H           -3.132382461434     1.799381987820    -0.461211506006
    H           -1.449651974824     0.630076990578     3.282648173977
    H            0.794605910704     0.829829225366    -2.278631030261
    H            1.328480516739    -1.950701971367     0.953832132117
    H            2.718856430262    -0.243498918515    -3.411813160863
    H            3.258515234259    -2.892216872138    -0.283022189818
    H            3.807698800796    -1.995493285874    -2.350647382681
    H           -4.217177377153     1.871533547897     1.687266953682

*** Psi4 exiting successfully. Buy a developer a beer!
