                               Psi4 1.1 release

  ==> Input File <==

--------------------------------------------------------------------------

memory 5 Gb

molecule phepyrFOH_neutral {
  symmetry C1
  0 1
  C      1.885   -1.036   -0.112
  C      0.807   -0.463   0.561
  C      3.825   -3.269   -0.988
  C      5.328   -1.753   0.119
  C      1.800   -1.079   2.676
  C      4.927   -3.802   -1.637
  C      6.363   -2.354   -0.579
  C      2.921   -1.631   0.608
  C      4.038   -2.225   -0.095
  C      0.764   -0.484   1.955
  C      2.878   -1.652   2.002
  N      6.195   -3.370   -1.455
  O      -0.289   0.076   2.612
  F      3.866   -2.220   2.709
  H      1.904   -1.012   -1.199
  H      0.002   -0.002   -0.006
  H      2.833   -3.663   -1.183
  H      5.532   -0.940   0.809
  H      1.772   -1.099   3.762
  H      4.814   -4.616   -2.345
  H      7.387   -2.023   -0.446
  H      -0.988   -0.583   2.749
  units Angstrom
}

dih_string = "2 10 13 22 90"
set optking fixed_dihedral = $dih_string

optimize('MP2/aug-cc-PVTZ')
--------------------------------------------------------------------------

    Molecular point group: c1
  Charge       = 0
  Multiplicity = 1
  Basis Set: AUG-CC-PVTZ
    Blend: AUG-CC-PVTZ
  Basis Set: (AUG-CC-PVTZ AUX)
    Blend: AUG-CC-PVTZ-JKFIT
  @DF-RHF Final Energy:  -650.16966509187296
    Total Energy =                       -650.1696650918729574
  Basis Set: (AUG-CC-PVTZ AUX)
    Blend: AUG-CC-PVTZ-RI
    Molecular point group: c1
  Basis Set: AUG-CC-PVTZ
    Blend: AUG-CC-PVTZ
  Basis Set: (AUG-CC-PVTZ AUX)
    Blend: AUG-CC-PVTZ-JKFIT
  Basis Set: (AUG-CC-PVTZ AUX)
    Blend: AUG-CC-PVTZ-JKFIT
	 Reference Energy          =    -650.1696650918729574 [Eh]
	 Singles Energy            =      -0.0000000000000003 [Eh]
	 Same-Spin Energy          =      -0.6770238077005312 [Eh]
	 Opposite-Spin Energy      =      -2.0187272769925482 [Eh]
	 Correlation Energy        =      -2.6957510846930797 [Eh]
	 Total Energy              =    -652.8654161765659865 [Eh]
	 SCS Total Energy          =    -652.8178124268308693 [Eh]
    Molecular point group: c1
  Charge       = 0
  Multiplicity = 1
  Basis Set: AUG-CC-PVTZ
    Blend: AUG-CC-PVTZ
  Basis Set: (AUG-CC-PVTZ AUX)
    Blend: AUG-CC-PVTZ-JKFIT

    Orbital Energies (a.u.)
    -----------------------

    Doubly Occupied:

       1A    -26.323174     2A    -20.595086     3A    -15.565335
       4A    -11.343669     5A    -11.317125     6A    -11.274677
       7A    -11.273700     8A    -11.268578     9A    -11.261983
      10A    -11.258461    11A    -11.250070    12A    -11.246029
      13A    -11.240950    14A    -11.239240    15A     -1.643533
      16A     -1.412300    17A     -1.258148    18A     -1.184413
      19A     -1.112325    20A     -1.042163    21A     -1.036038
      22A     -1.022425    23A     -0.889395    24A     -0.875475
      25A     -0.855843    26A     -0.828178    27A     -0.773076
      28A     -0.733780    29A     -0.729198    30A     -0.710623
      31A     -0.699964    32A     -0.667103    33A     -0.663119
      34A     -0.648396    35A     -0.634565    36A     -0.628532
      37A     -0.604450    38A     -0.599409    39A     -0.561428
      40A     -0.541236    41A     -0.537847    42A     -0.525411
      43A     -0.506907    44A     -0.499588    45A     -0.420684
      46A     -0.393999    47A     -0.358856    48A     -0.349748
      49A     -0.336910

  @DF-RHF Final Energy:  -650.17557901780560

   => Energetics <=

    Nuclear Repulsion Energy =            814.0730889987569299
    One-Electron Energy =               -2503.0110483479593313
    Two-Electron Energy =                1038.7623803313967983
    DFT Exchange-Correlation Energy =       0.0000000000000000
    Empirical Dispersion Energy =           0.0000000000000000
    PCM Polarization Energy =               0.0000000000000000
    EFP Energy =                            0.0000000000000000
    Total Energy =                       -650.1755790178056031
  Basis Set: (AUG-CC-PVTZ AUX)
    Blend: AUG-CC-PVTZ-RI
    Molecular point group: c1

    Geometry (in Angstrom), charge = 0, multiplicity = 1:

       Center              X                  Y                   Z               Mass
    ------------   -----------------  -----------------  -----------------  -----------------
           C         -1.334133913401     0.758285681263    -0.779051457858    12.000000000000
           C         -2.409109345155     1.328581141656    -0.108578650021    12.000000000000
           C          0.650360467019    -1.476924067364    -1.680976658318    12.000000000000
           C          2.138826122847     0.019708628714    -0.571564286565    12.000000000000
           C         -1.411723022401     0.722438908606     1.992476519958    12.000000000000
           C          1.753720082155    -2.011793441723    -2.327319737094    12.000000000000
           C          3.176509793368    -0.581222175791    -1.265985429946    12.000000000000
           C         -0.288737396256     0.165455119407    -0.077190924484    12.000000000000
           C          0.843864601299    -0.436084126742    -0.782035223098    12.000000000000
           C         -2.447765667077     1.309199459958     1.279398396055    12.000000000000
           C         -0.347300690496     0.159694473709     1.309745364073    12.000000000000
           N          3.010590534833    -1.585987939680    -2.138323258722    14.003074004780
           O         -3.499305728529     1.877065688168     1.950095127140    15.994914619560
           F          0.644635686710    -0.404356873986     2.010472420494    18.998403224000
           H         -1.311101303013     0.777620830895    -1.859725503485     1.007825032070
           H         -3.215333874578     1.788435242731    -0.663008461281     1.007825032070
           H         -0.338002520154    -1.866322678132    -1.878778084603     1.007825032070
           H          2.339795021772     0.826689365100     0.118112972668     1.007825032070
           H         -1.432765998392     0.704300337139     3.072952893771     1.007825032070
           H          1.640190214394    -2.822459128885    -3.034904743213     1.007825032070
           H          4.197488536923    -0.251861147297    -1.126602970392     1.007825032070
           H         -4.189804687870     1.219913283398     2.086376754749     1.007825032070

  Basis Set: AUG-CC-PVTZ
    Blend: AUG-CC-PVTZ
  Basis Set: (AUG-CC-PVTZ AUX)
    Blend: AUG-CC-PVTZ-JKFIT
  Basis Set: (AUG-CC-PVTZ AUX)
    Blend: AUG-CC-PVTZ-JKFIT
	 Reference Energy          =    -650.1755790178056031 [Eh]
	 Singles Energy            =      -0.0000000000000004 [Eh]
	 Same-Spin Energy          =      -0.6762008751255189 [Eh]
	 Opposite-Spin Energy      =      -2.0166757226362937 [Eh]
	 Correlation Energy        =      -2.6928765977618130 [Eh]
	 Total Energy              =    -652.8684556155674272 [Eh]

	 ================> DF-SCS-MP2 Energies <==================
	-----------------------------------------------------------
	 SCS Same-Spin Scale       =       0.3333333333333333 [-]
	 SCS Opposite-Spin Scale   =       1.2000000000000000 [-]
	 SCS Same-Spin Energy      =      -0.2254002917085063 [Eh]
	 SCS Opposite-Spin Energy  =      -2.4200108671635525 [Eh]
	 SCS Correlation Energy    =      -2.6454111588720592 [Eh]
	 SCS Total Energy          =    -652.8209901766776966 [Eh]
	-----------------------------------------------------------

  -Total Gradient:
     Atom            X                  Y                   Z
    ------   -----------------  -----------------  -----------------
       1        0.005511586806    -0.001009572532    -0.005378021956
       2       -0.000658231952    -0.000393475986     0.002816112927
       3       -0.003001863503    -0.000793595422     0.002309436792
       4       -0.002360722374     0.002980078389     0.001263666370
       5       -0.003130913505     0.000580794589    -0.003511725328
       6       -0.005610985658     0.000362677250     0.002115030744
       7       -0.002455937161     0.003432519931     0.003360999527
       8       -0.004366073972     0.002143441262     0.002677356312
       9        0.002226433293    -0.000946242874    -0.002482174948
      10       -0.002646702405     0.008375251646     0.005442510882
      11        0.009405746572    -0.008382429794     0.002992356638
      12        0.005988828106    -0.002868706366    -0.003733186308
      13        0.004450078895    -0.004070242301    -0.003911926504
      14       -0.001394338551     0.001376069517    -0.001090029089
      15       -0.001801848544     0.000680813430    -0.001300272043
      16       -0.000851489121     0.000139380526    -0.002150525644
      17       -0.000440599997    -0.000599697981    -0.001233865165
      18        0.001007038937     0.000837067203     0.000503363106
      19        0.000170049881     0.000051106642     0.001836554908
      20        0.001183445270    -0.000389334828    -0.000770118189
      21        0.000996823980    -0.000752809550    -0.000596459453
      22       -0.002220325008    -0.000753092761     0.000840916433

*** Psi4 exiting successfully. Buy a developer a beer!
