                               Psi4 1.1 release

  ==> Input File <==

--------------------------------------------------------------------------

memory 5 Gb

molecule phepyrFOH_zwitterion {
  symmetry C1
  0 1
  C      1.885   -1.036   -0.112
  C      0.807   -0.463   0.561
  C      5.074   -2.819   0.619
  C      4.078   -2.201   -1.486
  C      1.800   -1.079   2.676
  C      6.133   -3.379   -0.082
  C      5.162   -2.777   -2.133
  C      2.921   -1.631   0.608
  C      4.038   -2.224   -0.095
  C      0.764   -0.484   1.955
  C      2.878   -1.652   2.002
  N      6.146   -3.343   -1.421
  O      -0.227   0.043   2.574
  F      3.866   -2.220   2.709
  H      1.904   -1.013   -1.200
  H      0.011   -0.007   -0.025
  H      5.069   -2.852   1.704
  H      3.284   -1.743   -2.068
  H      1.791   -1.109   3.764
  H      6.978   -3.862   0.389
  H      5.277   -2.805   -3.208
  H      6.934   -3.759   -1.916
  units Angstrom
}

dih_string = "1 8 9 3 180.001"
set optking fixed_dihedral = $dih_string

optimize('MP2/aug-cc-PVTZ')
--------------------------------------------------------------------------

    Molecular point group: c1
  Charge       = 0
  Multiplicity = 1
  Basis Set: AUG-CC-PVTZ
    Blend: AUG-CC-PVTZ
  Basis Set: (AUG-CC-PVTZ AUX)
    Blend: AUG-CC-PVTZ-JKFIT
  @DF-RHF Final Energy:  -650.09923941791862
    Total Energy =                       -650.0992394179186249
  Basis Set: (AUG-CC-PVTZ AUX)
    Blend: AUG-CC-PVTZ-RI
    Molecular point group: c1
  Basis Set: AUG-CC-PVTZ
    Blend: AUG-CC-PVTZ
  Basis Set: (AUG-CC-PVTZ AUX)
    Blend: AUG-CC-PVTZ-JKFIT
  Basis Set: (AUG-CC-PVTZ AUX)
    Blend: AUG-CC-PVTZ-JKFIT
	 Reference Energy          =    -650.0992394179186249 [Eh]
	 Singles Energy            =      -0.0000000000000001 [Eh]
	 Same-Spin Energy          =      -0.6802542891553351 [Eh]
	 Opposite-Spin Energy      =      -2.0302206977811195 [Eh]
	 Correlation Energy        =      -2.7104749869364548 [Eh]
	 Total Energy              =    -652.8097144048550717 [Eh]
	 SCS Total Energy          =    -652.7622556849744342 [Eh]
  @DF-RHF Final Energy:  -650.11290510403012
    Total Energy =                       -650.1129051040300055
  @DF-RHF Final Energy:  -650.12377443126991
    Total Energy =                       -650.1237744312700215
  @DF-RHF Final Energy:  -650.13167466408277
    Total Energy =                       -650.1316746640827660
  @DF-RHF Final Energy:  -650.13657247219396
    Total Energy =                       -650.1365724721940751
  @DF-RHF Final Energy:  -650.13898294312810
    Total Energy =                       -650.1389829431279850
  @DF-RHF Final Energy:  -650.14001562709029
    Total Energy =                       -650.1400156270901789
  @DF-RHF Final Energy:  -650.14036778056311
    Total Energy =                       -650.1403677805631105
  @DF-RHF Final Energy:  -650.14042338612535
    Total Energy =                       -650.1404233861253488
  @DF-RHF Final Energy:  -650.14033433107375
    Total Energy =                       -650.1403343310737455
    Molecular point group: c1
  Charge       = 0
  Multiplicity = 1
  Basis Set: AUG-CC-PVTZ
    Blend: AUG-CC-PVTZ
  Basis Set: (AUG-CC-PVTZ AUX)
    Blend: AUG-CC-PVTZ-JKFIT

    Orbital Energies (a.u.)
    -----------------------

    Doubly Occupied:

       1A    -26.309820     2A    -20.485798     3A    -15.666547
       4A    -11.334366     5A    -11.332394     6A    -11.331425
       7A    -11.306691     8A    -11.289887     9A    -11.267039
      10A    -11.260077    11A    -11.245768    12A    -11.237453
      13A    -11.209259    14A    -11.206160    15A     -1.627067
      16A     -1.350058    17A     -1.321329    18A     -1.171577
      19A     -1.116767    20A     -1.091508    21A     -1.020823
      22A     -1.007098    23A     -0.911393    24A     -0.905531
      25A     -0.832650    26A     -0.822077    27A     -0.813386
      28A     -0.744750    29A     -0.719709    30A     -0.713326
      31A     -0.694346    32A     -0.677972    33A     -0.673800
      34A     -0.645708    35A     -0.628044    36A     -0.622277
      37A     -0.609725    38A     -0.602738    39A     -0.568780
      40A     -0.550491    41A     -0.532744    42A     -0.531385
      43A     -0.500346    44A     -0.485172    45A     -0.409701
      46A     -0.402165    47A     -0.382509    48A     -0.349983
      49A     -0.260598

  @DF-RHF Final Energy:  -650.14011097304638

   => Energetics <=

    Nuclear Repulsion Energy =            813.0383123193190613
    One-Electron Energy =               -2500.7964149033232388
    Two-Electron Energy =                1037.6179916109576880
    DFT Exchange-Correlation Energy =       0.0000000000000000
    Empirical Dispersion Energy =           0.0000000000000000
    PCM Polarization Energy =               0.0000000000000000
    EFP Energy =                            0.0000000000000000
    Total Energy =                       -650.1401109730463759
  Basis Set: (AUG-CC-PVTZ AUX)
    Blend: AUG-CC-PVTZ-RI
    Molecular point group: c1

    Geometry (in Angstrom), charge = 0, multiplicity = 1:

       Center              X                  Y                   Z               Mass
    ------------   -----------------  -----------------  -----------------  -----------------
           C         -1.334710209803     0.799521592771    -0.740740978957    12.000000000000
           C         -2.388526784607     1.396298404026    -0.135159988570    12.000000000000
           C          1.942741775253    -1.022594753733    -0.080344850214    12.000000000000
           C          0.856011164285    -0.466620890266    -2.138708348607    12.000000000000
           C         -1.489237090005     0.729635865130     2.029395350413    12.000000000000
           C          2.975733414332    -1.536932770112    -0.796330331003    12.000000000000
           C          1.908326900179    -0.990594668384    -2.815969887464    12.000000000000
           C         -0.293942143936     0.116205209939    -0.031231240078    12.000000000000
           C          0.786680033241    -0.456218013883    -0.708418810645    12.000000000000
           C         -2.545777489427     1.401774359136     1.306739317798    12.000000000000
           C         -0.455810933230     0.147332349591     1.385579474104    12.000000000000
           N          2.965457318281    -1.527737285693    -2.153677102991    14.003074004780
           O         -3.503017850702     1.944716511193     1.873769887991    15.994914619560
           F          0.487976308034    -0.450094633439     2.158613946069    18.998403224000
           H         -1.290896952794     0.846859508906    -1.816086824354     1.007825032070
           H         -3.151134546125     1.894518210831    -0.716050703411     1.007825032070
           H          2.024342287614    -1.058533932272     0.988428908449     1.007825032070
           H          0.063036835229    -0.055410269641    -2.736976885821     1.007825032070
           H         -1.533215587665     0.699549950949     3.106185324986     1.007825032070
           H          3.843717825128    -1.968429265865    -0.324169350460     1.007825032070
           H          1.956242760460    -1.002522054895    -3.892536546561     1.007825032070
           H          3.739998432103    -1.911195076076    -2.666367305939     1.007825032070

  Basis Set: AUG-CC-PVTZ
    Blend: AUG-CC-PVTZ
  Basis Set: (AUG-CC-PVTZ AUX)
    Blend: AUG-CC-PVTZ-JKFIT
  Basis Set: (AUG-CC-PVTZ AUX)
    Blend: AUG-CC-PVTZ-JKFIT
	 Reference Energy          =    -650.1401109730463759 [Eh]
	 Singles Energy            =      -0.0000000000000001 [Eh]
	 Same-Spin Energy          =      -0.6720078651732583 [Eh]
	 Opposite-Spin Energy      =      -2.0235516982621102 [Eh]
	 Correlation Energy        =      -2.6955595634353684 [Eh]
	 Total Energy              =    -652.8356705364817572 [Eh]

	 ================> DF-SCS-MP2 Energies <==================
	-----------------------------------------------------------
	 SCS Same-Spin Scale       =       0.3333333333333333 [-]
	 SCS Opposite-Spin Scale   =       1.2000000000000000 [-]
	 SCS Same-Spin Energy      =      -0.2240026217244194 [Eh]
	 SCS Opposite-Spin Energy  =      -2.4282620379145321 [Eh]
	 SCS Correlation Energy    =      -2.6522646596389516 [Eh]
	 SCS Total Energy          =    -652.7923756326853209 [Eh]
	-----------------------------------------------------------

  -Total Gradient:
     Atom            X                  Y                   Z
    ------   -----------------  -----------------  -----------------
       1        0.001816582205     0.003478902696     0.000105668188
       2        0.000020109708    -0.000277574733    -0.000040230871
       3        0.001521100662     0.002612121267     0.000014815022
       4        0.000296389166     0.000371253512    -0.000062126916
       5        0.000225525941    -0.000213171557     0.000281453611
       6       -0.000043058247     0.000010847026    -0.000291358855
       7       -0.000432180004     0.000077174899    -0.000296870990
       8       -0.001429217924    -0.003386740330    -0.000304796148
       9       -0.002678695084    -0.003990829100     0.000192273077
      10        0.000014457949    -0.000008540132    -0.000097543827
      11       -0.000331422020     0.000079330538    -0.000241464741
      12        0.000508131350     0.000166919755     0.000327452240
      13       -0.000197887851     0.000362867907     0.000023138956
      14        0.000738842951     0.000566804865     0.000283298228
      15       -0.000071994542     0.000241671294    -0.000011591290
      16       -0.000641083483    -0.000164471312    -0.000218964287
      17        0.000300492576     0.000090424903     0.000169562967
      18        0.000083397038     0.000455264159    -0.000103496939
      19       -0.000006596817     0.000018812812     0.000057308138
      20        0.000211453621    -0.000502053077     0.000289135025
      21       -0.000069872034     0.000023939411    -0.000084672664
      22        0.000165524826    -0.000012954796     0.000009012089

*** Psi4 exiting successfully. Buy a developer a beer!
