                               Psi4 1.1 release

  ==> Input File <==

--------------------------------------------------------------------------

memory 5 Gb

molecule phepyrFOH_cation {
  symmetry C1
  1 1
  C      1.885   -1.036   -0.112
  C      0.807   -0.463   0.561
  C      4.830   -1.443   -0.930
  C      4.321   -3.578   0.063
  C      1.800   -1.079   2.676
  C      5.894   -2.040   -1.592
  C      5.398   -4.120   -0.624
  C      2.921   -1.631   0.608
  C      4.038   -2.225   -0.095
  C      0.764   -0.484   1.955
  C      2.878   -1.652   2.002
  N      6.144   -3.345   -1.422
  O      -0.289   0.076   2.612
  F      3.866   -2.220   2.709
  H      1.904   -1.012   -1.199
  H      0.002   -0.002   -0.006
  H      4.632   -0.385   -1.072
  H      3.719   -4.212   0.708
  H      1.772   -1.099   3.762
  H      6.561   -1.511   -2.259
  H      5.691   -5.159   -0.561
  H      6.930   -3.764   -1.918
  H      -1.117   -0.360   2.354
  units Angstrom
}

dih_string = "2 10 13 23 60"
set optking fixed_dihedral = $dih_string

optimize('MP2/aug-cc-PVTZ')
--------------------------------------------------------------------------

    Molecular point group: c1
  Charge       = 1
  Multiplicity = 1
  Basis Set: AUG-CC-PVTZ
    Blend: AUG-CC-PVTZ
  Basis Set: (AUG-CC-PVTZ AUX)
    Blend: AUG-CC-PVTZ-JKFIT
  @DF-RHF Final Energy:  -650.55555494214332
    Total Energy =                       -650.5555549421433170
  Basis Set: (AUG-CC-PVTZ AUX)
    Blend: AUG-CC-PVTZ-RI
    Molecular point group: c1
  Basis Set: AUG-CC-PVTZ
    Blend: AUG-CC-PVTZ
  Basis Set: (AUG-CC-PVTZ AUX)
    Blend: AUG-CC-PVTZ-JKFIT
  Basis Set: (AUG-CC-PVTZ AUX)
    Blend: AUG-CC-PVTZ-JKFIT
	 Reference Energy          =    -650.5555549421433170 [Eh]
	 Singles Energy            =      -0.0000000000000003 [Eh]
	 Same-Spin Energy          =      -0.6687796778208870 [Eh]
	 Opposite-Spin Energy      =      -2.0134097075807831 [Eh]
	 Correlation Energy        =      -2.6821893854016703 [Eh]
	 Total Energy              =    -653.2377443275449878 [Eh]
	 SCS Total Energy          =    -653.1945731505138610 [Eh]
  @DF-RHF Final Energy:  -650.56056903829221
    Total Energy =                       -650.5605690382922148
  @DF-RHF Final Energy:  -650.56182275765104
    Total Energy =                       -650.5618227576510435
  @DF-RHF Final Energy:  -650.56224050462879
    Total Energy =                       -650.5622405046287895
  @DF-RHF Final Energy:  -650.56257126578100
    Total Energy =                       -650.5625712657808890
  @DF-RHF Final Energy:  -650.56295327862563
    Total Energy =                       -650.5629532786256277
  @DF-RHF Final Energy:  -650.56334229050810
    Total Energy =                       -650.5633422905082170
  @DF-RHF Final Energy:  -650.56369531816460
    Total Energy =                       -650.5636953181644913
  @DF-RHF Final Energy:  -650.56398517805053
    Total Energy =                       -650.5639851780506433
  @DF-RHF Final Energy:  -650.56420335897155
    Total Energy =                       -650.5642033589715538
  @DF-RHF Final Energy:  -650.56434335675374
    Total Energy =                       -650.5643433567536249
  @DF-RHF Final Energy:  -650.56439742808584
    Total Energy =                       -650.5643974280858401
  @DF-RHF Final Energy:  -650.56436640295544
    Total Energy =                       -650.5643664029553292
  @DF-RHF Final Energy:  -650.56440052291225
    Total Energy =                       -650.5644005229123650
  @DF-RHF Final Energy:  -650.56440148057777
    Total Energy =                       -650.5644014805777715
  Charge       = 1
  Multiplicity = 1
  Basis Set: AUG-CC-PVTZ
    Blend: AUG-CC-PVTZ
  Basis Set: (AUG-CC-PVTZ AUX)
    Blend: AUG-CC-PVTZ-JKFIT

    Orbital Energies (a.u.)
    -----------------------

    Doubly Occupied:

       1A    -26.443973     2A    -20.702158     3A    -15.832996
       4A    -11.482952     5A    -11.481053     6A    -11.470821
       7A    -11.455912     8A    -11.440551     9A    -11.414701
      10A    -11.411300    11A    -11.388766    12A    -11.385758
      13A    -11.358725    14A    -11.357955    15A     -1.764221
      16A     -1.523919    17A     -1.510836    18A     -1.325107
      19A     -1.276240    20A     -1.240587    21A     -1.170336
      22A     -1.159863    23A     -1.067206    24A     -1.064709
      25A     -0.988863    26A     -0.977133    27A     -0.962700
      28A     -0.895273    29A     -0.879541    30A     -0.866507
      31A     -0.837008    32A     -0.833423    33A     -0.819330
      34A     -0.809553    35A     -0.794119    36A     -0.775286
      37A     -0.763008    38A     -0.758863    39A     -0.741206
      40A     -0.718780    41A     -0.705817    42A     -0.675863
      43A     -0.667817    44A     -0.642726    45A     -0.618194
      46A     -0.578516    47A     -0.540022    48A     -0.476859
      49A     -0.455433

  @DF-RHF Final Energy:  -650.56440624428512

   => Energetics <=

    Nuclear Repulsion Energy =            830.8847057377171268
    One-Electron Energy =               -2521.8732533766938104
    Two-Electron Energy =                1040.4241413946915600
    DFT Exchange-Correlation Energy =       0.0000000000000000
    Empirical Dispersion Energy =           0.0000000000000000
    PCM Polarization Energy =               0.0000000000000000
    EFP Energy =                            0.0000000000000000
    Total Energy =                       -650.5644062442852373
  Basis Set: (AUG-CC-PVTZ AUX)
    Blend: AUG-CC-PVTZ-RI
    Molecular point group: c1
  Basis Set: AUG-CC-PVTZ
    Blend: AUG-CC-PVTZ
  Basis Set: (AUG-CC-PVTZ AUX)
    Blend: AUG-CC-PVTZ-JKFIT
  Basis Set: (AUG-CC-PVTZ AUX)
    Blend: AUG-CC-PVTZ-JKFIT
	 Reference Energy          =    -650.5644062442851236 [Eh]
	 Singles Energy            =      -0.0000000000000006 [Eh]
	 Same-Spin Energy          =      -0.6686647070294363 [Eh]
	 Opposite-Spin Energy      =      -2.0121668784856013 [Eh]
	 Correlation Energy        =      -2.6808315855150382 [Eh]
	 Total Energy              =    -653.2452378298002031 [Eh]

	 ================> DF-SCS-MP2 Energies <==================
	-----------------------------------------------------------
	 SCS Same-Spin Scale       =       0.3333333333333333 [-]
	 SCS Opposite-Spin Scale   =       1.2000000000000000 [-]
	 SCS Same-Spin Energy      =      -0.2228882356764788 [Eh]
	 SCS Opposite-Spin Energy  =      -2.4146002541827216 [Eh]
	 SCS Correlation Energy    =      -2.6374884898592010 [Eh]
	 SCS Total Energy          =    -653.2018947341442754 [Eh]
	-----------------------------------------------------------

  -Total Gradient:
     Atom            X                  Y                   Z
    ------   -----------------  -----------------  -----------------
       1        0.000010694225    -0.000004672559    -0.000000943561
       2        0.002100316609     0.002416463578     0.000784066026
       3        0.000000210883    -0.000006610653     0.000005730541
       4       -0.000007381442     0.000008091522     0.000015535245
       5        0.000010474399    -0.000014744019     0.000017650182
       6        0.000011941480    -0.000005879048    -0.000004560641
       7        0.000012872535    -0.000007343346    -0.000008966651
       8       -0.000018721431     0.000028107355    -0.000012366898
       9        0.000007619996     0.000000317388    -0.000015805053
      10       -0.003339220766    -0.004603737606    -0.000571631034
      11       -0.000001081007    -0.000003409408    -0.000001640221
      12       -0.000018103052     0.000009227166     0.000008175103
      13        0.001585500163     0.005671515614    -0.002768806616
      14        0.000001523869    -0.000001763371    -0.000000003997
      15       -0.000003974991     0.000001315329     0.000006010446
      16        0.000002223353     0.000000080827     0.000003530617
      17       -0.000000840181    -0.000005541762    -0.000000900117
      18        0.000006171900    -0.000006042605    -0.000008240326
      19       -0.000004477958     0.000004003268    -0.000003614281
      20       -0.000003733377     0.000001450292     0.000000069412
      21       -0.000001409095     0.000001062943     0.000002152438
      22        0.000000791814    -0.000000159542     0.000002915489
      23       -0.000351397921    -0.003481731358     0.002551643892

  **** Optimization is complete! (in 16 steps) ****
    Final optimized geometry and variables:
    Molecular point group: c1

    Geometry (in Angstrom), charge = 1, multiplicity = 1:

    C           -1.174918426706     1.025306529937    -0.715853897277
    C           -2.241662726337     1.603168691903    -0.061417484954
    C            1.452987444357     0.273663855090    -1.815439963536
    C            1.367263086369    -1.660680218167    -0.414420442075
    C           -1.558376000608     0.534476592482     1.985551661014
    C            2.507457904997    -0.282491851256    -2.495257511929
    C            2.422138642548    -2.189565237592    -1.116572935339
    C           -0.273856720444     0.185911502809    -0.049360560193
    C            0.847778071174    -0.403400536831    -0.749413673295
    C           -2.446503719315     1.344381673987     1.292298929380
    C           -0.505056568130    -0.031929130859     1.308430927097
    N            2.960927314315    -1.491902396731    -2.128946604071
    O           -3.422247666596     1.964129128947     2.003164512938
    F            0.356703115340    -0.793501806133     2.003484040431
    H           -1.050299227863     1.205220530734    -1.772886802171
    H           -2.921873419698     2.252438635355    -0.589695195672
    H            1.121673714431     1.258403852757    -2.100995822641
    H            0.939312186619    -2.241731692743     0.383312596170
    H           -1.687621427769     0.357276559545     3.040656583373
    H            3.013693608021     0.202893207718    -3.312783344157
    H            2.851593891457    -3.154713086464    -0.905980428568
    H            3.741830196275    -1.891826521426    -2.633558985517
    H           -4.289089019301     1.778175265821     1.626769746023

*** Psi4 exiting successfully. Buy a developer a beer!
