                              Psi4 1.0.0 Driver

  ==> Input File <==

--------------------------------------------------------------------------

memory 1000 mb

molecule butane {
  symmetry C1
  0 1
  H      1.604   0.760   -8.260
  H      1.745   2.388   -8.880
  H      2.043   1.024   -9.930
  C      2.142   1.395   -8.932
  H      4.169   2.051   -9.210
  H      3.731   1.788   -7.539
  C      3.631   1.416   -8.537
  H      4.589   -0.190   -9.594
  H      4.989   -0.119   -7.895
  C      4.203   -0.012   -8.612
  H      3.486   -2.021   -8.359
  H      2.301   -0.922   -9.024
  H      2.701   -0.852   -7.325
  C      3.088   -1.029   -8.307
  units Angstrom
}

dih_string = "4 7 10 14 330"
set optking fixed_dihedral = $dih_string

optimize('MP2/6-31G(d)')
--------------------------------------------------------------------------

    Molecular point group: c1
  Charge       = 0
  Multiplicity = 1
  Basis Set: 6-31G(D)
  Basis Set:
  @DF-RHF Final Energy:  -157.28093185872115
    Total Energy =                       -157.2809318587210328
  Basis Set:
    Molecular point group: c1
  Basis Set: 6-31G(D)
  Basis Set:
  Basis Set:
	 Reference Energy          =    -157.2809318587211465 [Eh]
	 Singles Energy            =      -0.0000000000000000 [Eh]
	 Same-Spin Energy          =      -0.1254413306003166 [Eh]
	 Opposite-Spin Energy      =      -0.4215326808968617 [Eh]
	 Correlation Energy        =      -0.5469740114971784 [Eh]
	 Total Energy              =    -157.8279058702183306 [Eh]
	 SCS Total Energy          =    -157.8285848526641644 [Eh]
  Basis Set: 6-31G(D)
  Basis Set:
  @DF-RHF Final Energy:  -157.28846494119131
    Total Energy =                       -157.2884649411912505
  Basis Set:
  Basis Set: 6-31G(D)
  Basis Set:
  @DF-RHF Final Energy:  -157.29057763465150
    Total Energy =                       -157.2905776346514699
  @DF-RHF Final Energy:  -157.29165237697848
    Total Energy =                       -157.2916523769784192
  @DF-RHF Final Energy:  -157.29208614031216
    Total Energy =                       -157.2920861403122501
  @DF-RHF Final Energy:  -157.29216443949966
    Total Energy =                       -157.2921644394995440
  @DF-RHF Final Energy:  -157.29220108319274
    Total Energy =                       -157.2922010831928787
  @DF-RHF Final Energy:  -157.29213901422264
    Total Energy =                       -157.2921390142229257
  @DF-RHF Final Energy:  -157.29215670829683
    Total Energy =                       -157.2921567082969148
  @DF-RHF Final Energy:  -157.29211249749636
    Total Energy =                       -157.2921124974964187
  @DF-RHF Final Energy:  -157.29212661808015
    Total Energy =                       -157.2921266180801467
	 Singles Energy            =      -0.0000000000000000 [Eh]
	 Same-Spin Energy          =      -0.1245768244020849 [Eh]
	 Opposite-Spin Energy      =      -0.4226784573326413 [Eh]
	 Correlation Energy        =      -0.5472552817347263 [Eh]
	 Total Energy              =    -157.8393818998148674 [Eh]
	 SCS Total Energy          =    -157.8408663750133485 [Eh]
  Charge       = 0
  Multiplicity = 1
  Basis Set: 6-31G(D)
  Basis Set:

    Orbital Energies (a.u.)
    -----------------------

    Doubly Occupied:

       1A    -11.216199     2A    -11.215636     3A    -11.209688
       4A    -11.209679     5A     -1.068165     6A     -0.973800
       7A     -0.876543     8A     -0.768705     9A     -0.630511
      10A     -0.615945    11A     -0.567479    12A     -0.537554
      13A     -0.525793    14A     -0.506710    15A     -0.463242
      16A     -0.458379    17A     -0.447298

  @DF-RHF Final Energy:  -157.29213281241883

   => Energetics <=

    Nuclear Repulsion Energy =            133.0069463328245263
    One-Electron Energy =                -474.0155067014403016
    Two-Electron Energy =                 183.7164275561969191
    DFT Exchange-Correlation Energy =       0.0000000000000000
    Empirical Dispersion Energy =           0.0000000000000000
    PCM Polarization Energy =               0.0000000000000000
    EFP Energy =                            0.0000000000000000
    Total Energy =                       -157.2921328124188847
  Basis Set:
    Molecular point group: c1
  Basis Set: 6-31G(D)
  Basis Set:
  Basis Set:
	 Reference Energy          =    -157.2921328124188278 [Eh]
	 Singles Energy            =      -0.0000000000000000 [Eh]
	 Same-Spin Energy          =      -0.1245749930043085 [Eh]
	 Opposite-Spin Energy      =      -0.4226791108251930 [Eh]
	 Correlation Energy        =      -0.5472541038295015 [Eh]
	 Total Energy              =    -157.8393869162483156 [Eh]

	 ================> DF-SCS-MP2 Energies <==================
	-----------------------------------------------------------
	 SCS Same-Spin Scale       =       0.3333333333333333 [-]
	 SCS Opposite-Spin Scale   =       1.2000000000000000 [-]
	 SCS Same-Spin Energy      =      -0.0415249976681028 [Eh]
	 SCS Opposite-Spin Energy  =      -0.5072149329902317 [Eh]
	 SCS Correlation Energy    =      -0.5487399306583345 [Eh]
	 SCS Total Energy          =    -157.8408727430771705 [Eh]
	-----------------------------------------------------------

  -Total Gradient:
     Atom            X                  Y                   Z
    ------   -----------------  -----------------  -----------------
       1        0.000006575804     0.000003810904    -0.000009944082
       2       -0.000006003335    -0.000010203443     0.000001681510
       3       -0.000008831920     0.000005324333     0.000008325375
       4       -0.001015528321    -0.000509444257     0.004541635972
       5       -0.000007665126     0.000000697250    -0.000002690662
       6        0.000022244505    -0.000006269037    -0.000011365826
       7        0.000921749455     0.000530641586    -0.008378534047
       8        0.000011880450     0.000020220718     0.000010555692
       9       -0.000004840749    -0.000005979578     0.000002815862
      10        0.001330621942     0.000393417705     0.008331377234
      11       -0.000011470671     0.000003035216    -0.000001418140
      12        0.000007464726     0.000002046313     0.000009273583
      13       -0.000002901667    -0.000010001200    -0.000007810058
      14       -0.001243295094    -0.000417296510    -0.004493902414

  **** Optimization is complete! (in 12 steps) ****
    Final optimized geometry and variables:
    Molecular point group: c1

    Geometry (in Angstrom), charge = 0, multiplicity = 1:

    H           -1.750576863335     0.537538215654     0.403400640887
    H           -1.463951969117     2.119069719594    -0.324132068291
    H           -1.369334615681     0.663278989725    -1.318058641135
    C           -1.143429164974     1.073465679505    -0.328639097145
    H            0.918544738532     1.609204946618    -0.682444277943
    H            0.491008882500     1.396022519704     1.000056363094
    C            0.343789831575     0.972749430244    -0.001409564165
    H            1.293239341359    -0.663868792589    -1.037733628903
    H            1.807747456717    -0.490492249442     0.624873405093
    C            0.927536968477    -0.451070050228    -0.025435996076
    H            0.458564035811    -2.531623144907     0.345360251592
    H           -0.882010895425    -1.617799782060    -0.347810364818
    H           -0.460412885665    -1.414102922709     1.356697079701
    C           -0.047508238393    -1.562157896370     0.353787416264

*** Psi4 exiting successfully. Buy a developer a beer!
