                               Psi4 1.1 release

  ==> Input File <==

--------------------------------------------------------------------------

memory 5000 mb

molecule butane {
  symmetry C1
  0 1
  H      1.702   2.346   -8.715
  H      2.054   1.191   -9.979
  H      1.637   0.633   -8.377
  C      2.142   1.395   -8.932
  H      4.169   2.051   -9.210
  H      3.731   1.788   -7.539
  C      3.631   1.416   -8.537
  H      3.665   -0.647   -7.940
  H      4.104   -0.384   -9.610
  C      4.203   -0.012   -8.612
  H      6.088   -0.983   -8.270
  H      5.791   0.381   -7.220
  H      6.230   0.644   -8.890
  C      5.691   0.009   -8.218
  units Angstrom
}

dih_string = "10 7 4 3 50"
set optking fixed_dihedral = $dih_string

optimize('MP2/aug-cc-pvtz')
--------------------------------------------------------------------------

    Molecular point group: c1
  Charge       = 0
  Multiplicity = 1
  Basis Set: AUG-CC-PVTZ
    Blend: AUG-CC-PVTZ
  Basis Set: (AUG-CC-PVTZ AUX)
    Blend: AUG-CC-PVTZ-JKFIT
  @DF-RHF Final Energy:  -157.35244219357040
    Total Energy =                       -157.3524421935703970
  Basis Set: (AUG-CC-PVTZ AUX)
    Blend: AUG-CC-PVTZ-RI
    Molecular point group: c1
  Basis Set: AUG-CC-PVTZ
    Blend: AUG-CC-PVTZ
  Basis Set: (AUG-CC-PVTZ AUX)
    Blend: AUG-CC-PVTZ-JKFIT
  Basis Set: (AUG-CC-PVTZ AUX)
    Blend: AUG-CC-PVTZ-JKFIT
	 Reference Energy          =    -157.3524421935703970 [Eh]
	 Singles Energy            =      -0.0000000000000002 [Eh]
	 Same-Spin Energy          =      -0.1653753588750411 [Eh]
	 Opposite-Spin Energy      =      -0.6387073675939027 [Eh]
	 Correlation Energy        =      -0.8040827264689440 [Eh]
	 Total Energy              =    -158.1565249200393453 [Eh]
	 SCS Total Energy          =    -158.1740161543081058 [Eh]
  @DF-RHF Final Energy:  -157.35508452507548
    Total Energy =                       -157.3550845250754833
  @DF-RHF Final Energy:  -157.35587654873589
    Total Energy =                       -157.3558765487358926
  @DF-RHF Final Energy:  -157.35611178995705
    Total Energy =                       -157.3561117899570547
  Charge       = 0
  Multiplicity = 1
  Basis Set: AUG-CC-PVTZ
    Blend: AUG-CC-PVTZ
  Basis Set: (AUG-CC-PVTZ AUX)
    Blend: AUG-CC-PVTZ-JKFIT

    Orbital Energies (a.u.)
    -----------------------

    Doubly Occupied:

       1A    -11.211425     2A    -11.210776     3A    -11.206074
       4A    -11.206026     5A     -1.074498     6A     -0.982179
       7A     -0.860924     8A     -0.788029     9A     -0.641024
      10A     -0.586051    11A     -0.577570    12A     -0.567657
      13A     -0.514687    14A     -0.493883    15A     -0.470000
      16A     -0.461083    17A     -0.456911

  @DF-RHF Final Energy:  -157.35610422628326

   => Energetics <=

    Nuclear Repulsion Energy =            131.5598837190306369
    One-Electron Energy =                -471.2143827106863796
    Two-Electron Energy =                 182.2983947653724499
    DFT Exchange-Correlation Energy =       0.0000000000000000
    Empirical Dispersion Energy =           0.0000000000000000
    PCM Polarization Energy =               0.0000000000000000
    EFP Energy =                            0.0000000000000000
    Total Energy =                       -157.3561042262832643
  Basis Set: (AUG-CC-PVTZ AUX)
    Blend: AUG-CC-PVTZ-RI
    Molecular point group: c1
  Basis Set: AUG-CC-PVTZ
    Blend: AUG-CC-PVTZ
  Basis Set: (AUG-CC-PVTZ AUX)
    Blend: AUG-CC-PVTZ-JKFIT
  Basis Set: (AUG-CC-PVTZ AUX)
    Blend: AUG-CC-PVTZ-JKFIT
	 Reference Energy          =    -157.3561042262832643 [Eh]
	 Singles Energy            =      -0.0000000000000000 [Eh]
	 Same-Spin Energy          =      -0.1654666067783591 [Eh]
	 Opposite-Spin Energy      =      -0.6392005588795664 [Eh]
	 Correlation Energy        =      -0.8046671656579255 [Eh]
	 Total Energy              =    -158.1607713919411822 [Eh]

	 ================> DF-SCS-MP2 Energies <==================
	-----------------------------------------------------------
	 SCS Same-Spin Scale       =       0.3333333333333333 [-]
	 SCS Opposite-Spin Scale   =       1.2000000000000000 [-]
	 SCS Same-Spin Energy      =      -0.0551555355927864 [Eh]
	 SCS Opposite-Spin Energy  =      -0.7670406706554797 [Eh]
	 SCS Correlation Energy    =      -0.8221962062482661 [Eh]
	 SCS Total Energy          =    -158.1783004325315289 [Eh]
	-----------------------------------------------------------

  -Total Gradient:
     Atom            X                  Y                   Z
    ------   -----------------  -----------------  -----------------
       1       -0.000029798347     0.000064564496     0.000029641724
       2       -0.000013434204     0.000015820380    -0.000017509042
       3        0.000246492902    -0.000995681288    -0.001042419338
       4       -0.000317769630     0.001063852429     0.001688723693
       5        0.000023630487    -0.000009287224    -0.000052578092
       6       -0.000009110425     0.000008165616    -0.000006594976
       7        0.000436182258    -0.000021788250    -0.001599074952
       8        0.000000057920     0.000007255791     0.000010166975
       9        0.000001388183     0.000003707549    -0.000037649582
      10       -0.000275805019    -0.000181935786     0.001037668498
      11        0.000014865654    -0.000044461932    -0.000008565105
      12        0.000018063928     0.000015287735     0.000047008347
      13        0.000037847678     0.000029182501    -0.000025740781
      14       -0.000132611387     0.000045317981    -0.000023077368

  **** Optimization is complete! (in 5 steps) ****
    Final optimized geometry and variables:
    Molecular point group: c1

    Geometry (in Angstrom), charge = 0, multiplicity = 1:

    H           -2.240885273677     1.661750365876    -0.169286977184
    H           -1.882304398726     0.478666675372    -1.421239247648
    H           -2.322511570345    -0.065329339957     0.185233187807
    C           -1.772638876895     0.699411397688    -0.360862628944
    H            0.255939312427     1.364463426805    -0.611201981102
    H           -0.200189103011     1.078424627772     1.051736809402
    C           -0.308110247829     0.692066488052     0.036873663871
    H           -0.246632267616    -1.352782182718     0.649202262978
    H            0.176756391271    -1.098878578163    -1.028122820878
    C            0.304875404479    -0.693657758989    -0.022858205046
    H            2.198204372608    -1.698292782406     0.306931752069
    H            1.918842216870    -0.313266099511     1.356452740274
    H            2.345238662020    -0.064479382922    -0.330810475511
    C            1.775667255376    -0.697003513856     0.347779807188

*** Psi4 exiting successfully. Buy a developer a beer!
