                               Psi4 1.1 release

  ==> Input File <==

--------------------------------------------------------------------------

memory 5 Gb

molecule phepyrFOH_anion {
  symmetry C1
  -1 1
  C      1.885   -1.036   -0.112
  C      0.807   -0.463   0.561
  C      4.518   -3.472   0.284
  C      4.634   -1.548   -1.154
  C      1.800   -1.079   2.676
  C      5.589   -3.998   -0.422
  C      5.700   -2.159   -1.795
  C      2.921   -1.631   0.608
  C      4.038   -2.224   -0.095
  C      0.764   -0.484   1.955
  C      2.878   -1.652   2.002
  N      6.194   -3.371   -1.455
  O      -0.227   0.043   2.574
  F      3.866   -2.220   2.709
  H      1.904   -1.013   -1.200
  H      0.011   -0.007   -0.025
  H      4.078   -4.031   1.105
  H      4.287   -0.572   -1.477
  H      1.791   -1.109   3.764
  H      5.999   -4.969   -0.166
  H      6.200   -1.673   -2.626
  units Angstrom
}

dih_string = "1 8 9 3 225"
set optking fixed_dihedral = $dih_string

optimize('MP2/aug-cc-PVTZ')
--------------------------------------------------------------------------

    Molecular point group: c1
  Charge       = -1
  Multiplicity = 1
  Basis Set: AUG-CC-PVTZ
    Blend: AUG-CC-PVTZ
  Basis Set: (AUG-CC-PVTZ AUX)
    Blend: AUG-CC-PVTZ-JKFIT
  @DF-RHF Final Energy:  -649.61047413767437
    Total Energy =                       -649.6104741376743732
  Basis Set: (AUG-CC-PVTZ AUX)
    Blend: AUG-CC-PVTZ-RI
    Molecular point group: c1
  Basis Set: AUG-CC-PVTZ
    Blend: AUG-CC-PVTZ
  Basis Set: (AUG-CC-PVTZ AUX)
    Blend: AUG-CC-PVTZ-JKFIT
  Basis Set: (AUG-CC-PVTZ AUX)
    Blend: AUG-CC-PVTZ-JKFIT
	 Reference Energy          =    -649.6104741376743732 [Eh]
	 Singles Energy            =      -0.0000000000000005 [Eh]
	 Same-Spin Energy          =      -0.6862646790511491 [Eh]
	 Opposite-Spin Energy      =      -2.0262851981638779 [Eh]
	 Correlation Energy        =      -2.7125498772150274 [Eh]
	 Total Energy              =    -652.3230240148893699 [Eh]
	 SCS Total Energy          =    -652.2707712684880335 [Eh]
  @DF-RHF Final Energy:  -649.61772448802196
    Total Energy =                       -649.6177244880220769
  @DF-RHF Final Energy:  -649.62233493390488
    Total Energy =                       -649.6223349339047672
  @DF-RHF Final Energy:  -649.62434405294005
    Total Energy =                       -649.6243440529401596
  @DF-RHF Final Energy:  -649.62480960683672
    Total Energy =                       -649.6248096068366067
  @DF-RHF Final Energy:  -649.62497252966034
    Total Energy =                       -649.6249725296604538
  @DF-RHF Final Energy:  -649.62502544639483
    Total Energy =                       -649.6250254463948295
  @DF-RHF Final Energy:  -649.62508748036839
    Total Energy =                       -649.6250874803683928
  @DF-RHF Final Energy:  -649.62507871128173
    Total Energy =                       -649.6250787112817306
  @DF-RHF Final Energy:  -649.62507602745950
    Total Energy =                       -649.6250760274594995
  @DF-RHF Final Energy:  -649.62507315051266
    Total Energy =                       -649.6250731505126623
  @DF-RHF Final Energy:  -649.62504307965003
    Total Energy =                       -649.6250430796501405
  @DF-RHF Final Energy:  -649.62505061300294
    Total Energy =                       -649.6250506130029407
  Charge       = -1
  Multiplicity = 1
  Basis Set: AUG-CC-PVTZ
    Blend: AUG-CC-PVTZ
  Basis Set: (AUG-CC-PVTZ AUX)
    Blend: AUG-CC-PVTZ-JKFIT

    Orbital Energies (a.u.)
    -----------------------

    Doubly Occupied:

       1A    -26.176724     2A    -20.326796     3A    -15.450743
       4A    -11.191732     5A    -11.165230     6A    -11.163658
       7A    -11.151309     8A    -11.144108     9A    -11.120261
      10A    -11.118191    11A    -11.111447    12A    -11.086079
      13A    -11.067932    14A    -11.067301    15A     -1.488475
      16A     -1.158995    17A     -1.146925    18A     -1.024585
      19A     -0.967516    20A     -0.921927    21A     -0.876449
      22A     -0.851333    23A     -0.747819    24A     -0.741586
      25A     -0.695388    26A     -0.674408    27A     -0.608767
      28A     -0.575608    29A     -0.566974    30A     -0.557678
      31A     -0.544860    32A     -0.530446    33A     -0.508416
      34A     -0.483817    35A     -0.477294    36A     -0.455811
      37A     -0.435305    38A     -0.433189    39A     -0.404752
      40A     -0.389740    41A     -0.386277    42A     -0.367998
      43A     -0.320199    44A     -0.311724    45A     -0.256218
      46A     -0.240674    47A     -0.235202    48A     -0.208202
      49A     -0.119815

  @DF-RHF Final Energy:  -649.62506185715642

   => Energetics <=

    Nuclear Repulsion Energy =            797.3028877365896960
    One-Electron Energy =               -2483.7441345547686069
    Two-Electron Energy =                1036.8161849610226000
    DFT Exchange-Correlation Energy =       0.0000000000000000
    Empirical Dispersion Energy =           0.0000000000000000
    PCM Polarization Energy =               0.0000000000000000
    EFP Energy =                            0.0000000000000000
    Total Energy =                       -649.6250618571564246
  Basis Set: (AUG-CC-PVTZ AUX)
    Blend: AUG-CC-PVTZ-RI
    Molecular point group: c1
  Basis Set: AUG-CC-PVTZ
    Blend: AUG-CC-PVTZ
  Basis Set: (AUG-CC-PVTZ AUX)
    Blend: AUG-CC-PVTZ-JKFIT
  Basis Set: (AUG-CC-PVTZ AUX)
    Blend: AUG-CC-PVTZ-JKFIT
	 Reference Energy          =    -649.6250618571564246 [Eh]
	 Singles Energy            =      -0.0000000000000002 [Eh]
	 Same-Spin Energy          =      -0.6847531010805732 [Eh]
	 Opposite-Spin Energy      =      -2.0248637073172659 [Eh]
	 Correlation Energy        =      -2.7096168083978389 [Eh]
	 Total Energy              =    -652.3346786655542928 [Eh]

	 ================> DF-SCS-MP2 Energies <==================
	-----------------------------------------------------------
	 SCS Same-Spin Scale       =       0.3333333333333333 [-]
	 SCS Opposite-Spin Scale   =       1.2000000000000000 [-]
	 SCS Same-Spin Energy      =      -0.2282510336935244 [Eh]
	 SCS Opposite-Spin Energy  =      -2.4298364487807191 [Eh]
	 SCS Correlation Energy    =      -2.6580874824742438 [Eh]
	 SCS Total Energy          =    -652.2831493396306541 [Eh]
	-----------------------------------------------------------

  -Total Gradient:
     Atom            X                  Y                   Z
    ------   -----------------  -----------------  -----------------
       1       -0.002022755645    -0.003527064000    -0.000083767596
       2        0.000021480400     0.000040884376     0.000002111202
       3       -0.002674130787    -0.001815532088    -0.002625152410
       4        0.000026481319     0.000008233526     0.000020642038
       5        0.000032096013     0.000055307263     0.000002951508
       6        0.000042951369     0.000034269788     0.000037416749
       7       -0.000110347448    -0.000062314789    -0.000077512140
       8        0.001620264538     0.004334885011    -0.001256808817
       9        0.003055285491     0.001021948812     0.004012990019
      10       -0.000047470593    -0.000133026386    -0.000023677663
      11       -0.000028781008    -0.000049164113    -0.000018499816
      12        0.000036294282     0.000017107124     0.000024713191
      13        0.000019000772     0.000053266365     0.000008532206
      14        0.000018527237     0.000011049401    -0.000018674658
      15       -0.000005120826     0.000002356374    -0.000003227569
      16        0.000002076895     0.000004417766    -0.000000849236
      17       -0.000001288900    -0.000008617587    -0.000005577110
      18        0.000010619598     0.000011644054     0.000002606901
      19        0.000000367300    -0.000002797615    -0.000001386423
      20       -0.000024689864    -0.000015128433    -0.000019666817
      21        0.000029139847     0.000018275155     0.000022836447

  **** Optimization is complete! (in 14 steps) ****
    Final optimized geometry and variables:
    Molecular point group: c1

    Geometry (in Angstrom), charge = -1, multiplicity = 1:

    C           -1.268456279556     0.860203962337    -0.728764203419
    C           -2.381259372972     1.377054887271    -0.109869342816
    C            1.407161789972    -1.631177184892    -0.374704061706
    C            1.448433435703     0.205826896564    -1.857552820341
    C           -1.494637124476     0.685403123453     2.013978104764
    C            2.416897657716    -2.197893913253    -1.131691547854
    C            2.448906030053    -0.442009664828    -2.559977957525
    C           -0.220151709161     0.239214235953    -0.025451551542
    C            0.887184399131    -0.377071212238    -0.715650255992
    C           -2.567136067992     1.333756286329     1.314255783887
    C           -0.414949622516     0.168446895540     1.354505778269
    N            2.953667439772    -1.634312125722    -2.221647739049
    O           -3.576608137298     1.813780775715     1.897971127507
    F            0.568006701444    -0.420672060227     2.108652039218
    H           -1.200382065885     0.897404300510    -1.808906963891
    H           -3.169557979626     1.826040515605    -0.697607554937
    H            1.014593463491    -2.160766842084     0.478606488245
    H            1.108686837394     1.178486979558    -2.181943947233
    H           -1.543978539698     0.613946605567     3.089609063835
    H            2.809985025940    -3.168571303447    -0.857575756028
    H            2.877788177089     0.024801694455    -3.437749576066

*** Psi4 exiting successfully. Buy a developer a beer!
