                               Psi4 1.1 release

  ==> Input File <==

--------------------------------------------------------------------------

memory 5000 mb

molecule butane {
  symmetry C1
  0 1
  H      1.604   0.760   -8.260
  H      1.745   2.388   -8.880
  H      2.043   1.024   -9.930
  C      2.142   1.395   -8.932
  H      4.169   2.051   -9.210
  H      3.731   1.788   -7.539
  C      3.631   1.416   -8.537
  H      3.665   -0.647   -7.940
  H      4.104   -0.384   -9.610
  C      4.203   -0.012   -8.612
  H      6.088   -0.983   -8.270
  H      5.791   0.381   -7.220
  H      6.230   0.644   -8.890
  C      5.691   0.009   -8.218
  units Angstrom
}

dih_string = "10 7 4 3 300"
set optking fixed_dihedral = $dih_string

optimize('MP2/aug-cc-pvtz')
--------------------------------------------------------------------------

    Molecular point group: c1
  Charge       = 0
  Multiplicity = 1
  Basis Set: AUG-CC-PVTZ
    Blend: AUG-CC-PVTZ
  Basis Set: (AUG-CC-PVTZ AUX)
    Blend: AUG-CC-PVTZ-JKFIT
  @DF-RHF Final Energy:  -157.35281648366043
    Total Energy =                       -157.3528164836604333
  Basis Set: (AUG-CC-PVTZ AUX)
    Blend: AUG-CC-PVTZ-RI
    Molecular point group: c1
  Basis Set: AUG-CC-PVTZ
    Blend: AUG-CC-PVTZ
  Basis Set: (AUG-CC-PVTZ AUX)
    Blend: AUG-CC-PVTZ-JKFIT
  Basis Set: (AUG-CC-PVTZ AUX)
    Blend: AUG-CC-PVTZ-JKFIT
	 Reference Energy          =    -157.3528164836604333 [Eh]
	 Singles Energy            =      -0.0000000000000000 [Eh]
	 Same-Spin Energy          =      -0.1653647387125528 [Eh]
	 Opposite-Spin Energy      =      -0.6386381326755435 [Eh]
	 Correlation Energy        =      -0.8040028713880962 [Eh]
	 Total Energy              =    -158.1568193550485262 [Eh]
	 SCS Total Energy          =    -158.1743038224419422 [Eh]
  @DF-RHF Final Energy:  -157.35544300471130
    Total Energy =                       -157.3554430047113044
  @DF-RHF Final Energy:  -157.35621597864352
    Total Energy =                       -157.3562159786435188
  @DF-RHF Final Energy:  -157.35641642703717
    Total Energy =                       -157.3564164270371748
  Charge       = 0
  Multiplicity = 1
  Basis Set: AUG-CC-PVTZ
    Blend: AUG-CC-PVTZ
  Basis Set: (AUG-CC-PVTZ AUX)
    Blend: AUG-CC-PVTZ-JKFIT

    Orbital Energies (a.u.)
    -----------------------

    Doubly Occupied:

       1A    -11.211380     2A    -11.210739     3A    -11.206063
       4A    -11.206057     5A     -1.074534     6A     -0.982303
       7A     -0.860895     8A     -0.787861     9A     -0.641288
      10A     -0.585813    11A     -0.577253    12A     -0.568070
      13A     -0.514564    14A     -0.494222    15A     -0.469825
      16A     -0.461419    17A     -0.456774

  @DF-RHF Final Energy:  -157.35640886899009

   => Energetics <=

    Nuclear Repulsion Energy =            131.5644035650122134
    One-Electron Energy =                -471.2235033480721427
    Two-Electron Energy =                 182.3026909140698137
    DFT Exchange-Correlation Energy =       0.0000000000000000
    Empirical Dispersion Energy =           0.0000000000000000
    PCM Polarization Energy =               0.0000000000000000
    EFP Energy =                            0.0000000000000000
    Total Energy =                       -157.3564088689900871
  Basis Set: (AUG-CC-PVTZ AUX)
    Blend: AUG-CC-PVTZ-RI
    Molecular point group: c1
  Basis Set: AUG-CC-PVTZ
    Blend: AUG-CC-PVTZ
  Basis Set: (AUG-CC-PVTZ AUX)
    Blend: AUG-CC-PVTZ-JKFIT
  Basis Set: (AUG-CC-PVTZ AUX)
    Blend: AUG-CC-PVTZ-JKFIT
	 Reference Energy          =    -157.3564088689900871 [Eh]
	 Singles Energy            =      -0.0000000000000000 [Eh]
	 Same-Spin Energy          =      -0.1654584242075681 [Eh]
	 Opposite-Spin Energy      =      -0.6391449276830705 [Eh]
	 Correlation Energy        =      -0.8046033518906386 [Eh]
	 Total Energy              =    -158.1610122208807354 [Eh]

	 ================> DF-SCS-MP2 Energies <==================
	-----------------------------------------------------------
	 SCS Same-Spin Scale       =       0.3333333333333333 [-]
	 SCS Opposite-Spin Scale   =       1.2000000000000000 [-]
	 SCS Same-Spin Energy      =      -0.0551528080691894 [Eh]
	 SCS Opposite-Spin Energy  =      -0.7669739132196846 [Eh]
	 SCS Correlation Energy    =      -0.8221267212888739 [Eh]
	 SCS Total Energy          =    -158.1785355902789547 [Eh]
	-----------------------------------------------------------

  -Total Gradient:
     Atom            X                  Y                   Z
    ------   -----------------  -----------------  -----------------
       1       -0.000033997269    -0.000019891942     0.000026716259
       2       -0.000012466967     0.000044410194    -0.000002797297
       3       -0.000010534953     0.000040883426    -0.000069353131
       4        0.000102529124    -0.000120925301     0.000073520119
       5        0.000003622713    -0.000002839071    -0.000020828487
       6       -0.000001813256    -0.000017467961     0.000025329181
       7        0.000022555209     0.000051214893    -0.000063907645
       8       -0.000008274321     0.000005337268     0.000023834959
       9        0.000003980007     0.000012671632    -0.000023727262
      10       -0.000016376174    -0.000031317474     0.000038123085
      11        0.000013888758    -0.000043921790    -0.000003480876
      12        0.000015055449     0.000014305819     0.000045360379
      13        0.000032541363     0.000024846337    -0.000025001605
      14       -0.000110709678     0.000042693967    -0.000023787680

  **** Optimization is complete! (in 5 steps) ****
    Final optimized geometry and variables:
    Molecular point group: c1

    Geometry (in Angstrom), charge = 0, multiplicity = 1:

    H           -2.348313163236     0.049214946272     0.307721509211
    H           -2.203067548249     1.691962009215    -0.307110725848
    H           -1.906928323614     0.322681670578    -1.372113570945
    C           -1.775320677144     0.693292042529    -0.357026815862
    H            0.247984407851     1.356420609160    -0.635150301588
    H           -0.191237618540     1.092650376262     1.036456116364
    C           -0.308225690946     0.692126609046     0.028184045161
    H           -0.247773509927    -1.356008219172     0.636328871150
    H            0.190514632906    -1.093473214628    -1.035717170422
    C            0.308124440082    -0.692238126696    -0.027801715000
    H            2.202098778255    -1.692579280350     0.311671608310
    H            1.908000793763    -0.317044014569     1.369561694658
    H            2.348722666233    -0.053197609141    -0.311740327835
    C            1.775421834327    -0.693233206718     0.356652237299

*** Psi4 exiting successfully. Buy a developer a beer!
