                               Psi4 1.1 release

  ==> Input File <==

--------------------------------------------------------------------------

memory 5000 mb

molecule butane {
  symmetry C1
  0 1
  H      2.025   0.865   -9.854
  H      1.576   0.906   -8.165
  H      1.790   2.398   -9.049
  C      2.142   1.395   -8.932
  H      4.169   2.051   -9.210
  H      3.731   1.788   -7.539
  C      3.631   1.416   -8.537
  H      3.665   -0.647   -7.940
  H      4.104   -0.384   -9.610
  C      4.203   -0.012   -8.612
  H      6.088   -0.983   -8.270
  H      5.791   0.381   -7.220
  H      6.230   0.644   -8.890
  C      5.691   0.009   -8.218
  units Angstrom
}

dih_string = "10 7 4 3 190"
set optking fixed_dihedral = $dih_string

optimize('MP2/aug-cc-pvtz')
--------------------------------------------------------------------------

    Molecular point group: c1
  Charge       = 0
  Multiplicity = 1
  Basis Set: AUG-CC-PVTZ
    Blend: AUG-CC-PVTZ
  Basis Set: (AUG-CC-PVTZ AUX)
    Blend: AUG-CC-PVTZ-JKFIT
  @DF-RHF Final Energy:  -157.35245997539204
    Total Energy =                       -157.3524599753920370
  Basis Set: (AUG-CC-PVTZ AUX)
    Blend: AUG-CC-PVTZ-RI
    Molecular point group: c1
  Basis Set: AUG-CC-PVTZ
    Blend: AUG-CC-PVTZ
  Basis Set: (AUG-CC-PVTZ AUX)
    Blend: AUG-CC-PVTZ-JKFIT
  Basis Set: (AUG-CC-PVTZ AUX)
    Blend: AUG-CC-PVTZ-JKFIT
	 Reference Energy          =    -157.3524599753920370 [Eh]
	 Singles Energy            =      -0.0000000000000002 [Eh]
	 Same-Spin Energy          =      -0.1653737646648040 [Eh]
	 Opposite-Spin Energy      =      -0.6387096683340476 [Eh]
	 Correlation Energy        =      -0.8040834329988518 [Eh]
	 Total Energy              =    -158.1565434083908883 [Eh]
	 SCS Total Energy          =    -158.1740361656144955 [Eh]
  @DF-RHF Final Energy:  -157.35509051888081
    Total Energy =                       -157.3550905188808144
  @DF-RHF Final Energy:  -157.35587575308710
    Total Energy =                       -157.3558757530871048
  @DF-RHF Final Energy:  -157.35610820218966
    Total Energy =                       -157.3561082021896596
  Charge       = 0
  Multiplicity = 1
  Basis Set: AUG-CC-PVTZ
    Blend: AUG-CC-PVTZ
  Basis Set: (AUG-CC-PVTZ AUX)
    Blend: AUG-CC-PVTZ-JKFIT

    Orbital Energies (a.u.)
    -----------------------

    Doubly Occupied:

       1A    -11.211399     2A    -11.210757     3A    -11.206050
       4A    -11.206024     5A     -1.074438     6A     -0.982189
       7A     -0.860951     8A     -0.787945     9A     -0.641162
      10A     -0.585622    11A     -0.577252    12A     -0.568278
      13A     -0.514254    14A     -0.494470    15A     -0.469919
      16A     -0.461209    17A     -0.456597

  @DF-RHF Final Energy:  -157.35610192122479

   => Energetics <=

    Nuclear Repulsion Energy =            131.5506235506206281
    One-Electron Energy =                -471.1964240962270765
    Two-Electron Energy =                 182.2896986243816571
    DFT Exchange-Correlation Energy =       0.0000000000000000
    Empirical Dispersion Energy =           0.0000000000000000
    PCM Polarization Energy =               0.0000000000000000
    EFP Energy =                            0.0000000000000000
    Total Energy =                       -157.3561019212247913
  Basis Set: (AUG-CC-PVTZ AUX)
    Blend: AUG-CC-PVTZ-RI
    Molecular point group: c1
  Basis Set: AUG-CC-PVTZ
    Blend: AUG-CC-PVTZ
  Basis Set: (AUG-CC-PVTZ AUX)
    Blend: AUG-CC-PVTZ-JKFIT
  Basis Set: (AUG-CC-PVTZ AUX)
    Blend: AUG-CC-PVTZ-JKFIT
	 Reference Energy          =    -157.3561019212247913 [Eh]
	 Singles Energy            =      -0.0000000000000000 [Eh]
	 Same-Spin Energy          =      -0.1654611580576043 [Eh]
	 Opposite-Spin Energy      =      -0.6391960098187209 [Eh]
	 Correlation Energy        =      -0.8046571678763252 [Eh]
	 Total Energy              =    -158.1607590891011057 [Eh]

	 ================> DF-SCS-MP2 Energies <==================
	-----------------------------------------------------------
	 SCS Same-Spin Scale       =       0.3333333333333333 [-]
	 SCS Opposite-Spin Scale   =       1.2000000000000000 [-]
	 SCS Same-Spin Energy      =      -0.0551537193525347 [Eh]
	 SCS Opposite-Spin Energy  =      -0.7670352117824651 [Eh]
	 SCS Correlation Energy    =      -0.8221889311349999 [Eh]
	 SCS Total Energy          =    -158.1782908523597939 [Eh]
	-----------------------------------------------------------

  -Total Gradient:
     Atom            X                  Y                   Z
    ------   -----------------  -----------------  -----------------
       1       -0.000022124169    -0.000016444149    -0.000016497938
       2       -0.000034403697    -0.000013497069     0.000049683782
       3        0.000356635218     0.000014025917    -0.001465440376
       4       -0.000229427575     0.000053322122     0.001425740301
       5       -0.000009089846     0.000003645918     0.000003395720
       6       -0.000007089490    -0.000019119345     0.000054491886
       7       -0.000257021179    -0.000210351819     0.000992167549
       8       -0.000017655589    -0.000009774700     0.000034141018
       9        0.000005963079     0.000012567782    -0.000007986962
      10        0.000269497498     0.000146023342    -0.001053138448
      11        0.000014789194    -0.000046457743    -0.000000882984
      12        0.000013877866     0.000017199504     0.000049272008
      13        0.000038445800     0.000026080085    -0.000024438191
      14       -0.000122397107     0.000042780158    -0.000040507366

  **** Optimization is complete! (in 5 steps) ****
    Final optimized geometry and variables:
    Molecular point group: c1

    Geometry (in Angstrom), charge = 0, multiplicity = 1:

    H           -1.931061654951     0.171111833141    -1.291644614352
    H           -2.371919082248     0.191193900658     0.409619536789
    H           -2.160135658972     1.705247914678    -0.472084232375
    C           -1.776925476201     0.694927506521    -0.349342126780
    H            0.244615003949     1.347174155541    -0.657280179653
    H           -0.173599797380     1.107014648955     1.022777499265
    C           -0.305362207011     0.693575340062     0.021745276693
    H           -0.253051715161    -1.359458533652     0.621577893382
    H            0.199104823743    -1.086039976820    -1.045096378585
    C            0.308985100333    -0.691788011893    -0.033786372189
    H            2.200384297604    -1.695409227102     0.310090004163
    H            1.897548732314    -0.331599790232     1.380615124199
    H            2.351389969690    -0.049230992958    -0.294158504892
    C            1.773027537468    -0.696715164939     0.362692038626

*** Psi4 exiting successfully. Buy a developer a beer!
