                               Psi4 1.1 release

  ==> Input File <==

--------------------------------------------------------------------------

memory 1000 mb

molecule butane {
  symmetry C1
  0 1
  H      1.604   0.760   -8.260
  H      1.745   2.388   -8.880
  H      2.043   1.024   -9.930
  C      2.142   1.395   -8.932
  H      4.169   2.051   -9.210
  H      3.731   1.788   -7.539
  C      3.631   1.416   -8.537
  H      3.665   -0.647   -7.940
  H      4.104   -0.384   -9.610
  C      4.203   -0.012   -8.612
  H      5.998   -0.975   -7.932
  H      5.834   0.680   -7.397
  H      6.277   0.337   -9.051
  C      5.691   0.009   -8.218
  units Angstrom
}

dih_string = "7 10 14 13 280"
set optking fixed_dihedral = $dih_string

optimize('MP2/aug-cc-pvtz')
--------------------------------------------------------------------------

    Molecular point group: c1
  Charge       = 0
  Multiplicity = 1
  Basis Set: AUG-CC-PVTZ
    Blend: AUG-CC-PVTZ
  Basis Set: (AUG-CC-PVTZ AUX)
    Blend: AUG-CC-PVTZ-JKFIT
  @DF-RHF Final Energy:  -157.35141682632360
    Total Energy =                       -157.3514168263236002
  Basis Set: (AUG-CC-PVTZ AUX)
    Blend: AUG-CC-PVTZ-RI
    Molecular point group: c1
  Basis Set: AUG-CC-PVTZ
    Blend: AUG-CC-PVTZ
  Basis Set: (AUG-CC-PVTZ AUX)
    Blend: AUG-CC-PVTZ-JKFIT
  Basis Set: (AUG-CC-PVTZ AUX)
    Blend: AUG-CC-PVTZ-JKFIT
	 Reference Energy          =    -157.3514168263236002 [Eh]
	 Singles Energy            =      -0.0000000000000000 [Eh]
	 Same-Spin Energy          =      -0.1654002831265979 [Eh]
	 Opposite-Spin Energy      =      -0.6388829342938299 [Eh]
	 Correlation Energy        =      -0.8042832174204277 [Eh]
	 Total Energy              =    -158.1557000437440195 [Eh]
	 SCS Total Energy          =    -158.1732097751850574 [Eh]
  @DF-RHF Final Energy:  -157.35410671536218
    Total Energy =                       -157.3541067153621782
  @DF-RHF Final Energy:  -157.35493510451721
    Total Energy =                       -157.3549351045172102
  @DF-RHF Final Energy:  -157.35521506921208
    Total Energy =                       -157.3552150692120790
  @DF-RHF Final Energy:  -157.35522652688365
    Total Energy =                       -157.3552265268836550
  Charge       = 0
  Multiplicity = 1
  Basis Set: AUG-CC-PVTZ
    Blend: AUG-CC-PVTZ
  Basis Set: (AUG-CC-PVTZ AUX)
    Blend: AUG-CC-PVTZ-JKFIT

    Orbital Energies (a.u.)
    -----------------------

    Doubly Occupied:

       1A    -11.211412     2A    -11.210767     3A    -11.205967
       4A    -11.205911     5A     -1.073955     6A     -0.981872
       7A     -0.861267     8A     -0.787963     9A     -0.640660
      10A     -0.585083    11A     -0.577388    12A     -0.568545
      13A     -0.513825    14A     -0.495321    15A     -0.470188
      16A     -0.460655    17A     -0.455556

  @DF-RHF Final Energy:  -157.35523362226843

   => Energetics <=

    Nuclear Repulsion Energy =            131.4778606760076229
    One-Electron Energy =                -471.0535182217004717
    Two-Electron Energy =                 182.2204239234243914
    DFT Exchange-Correlation Energy =       0.0000000000000000
    Empirical Dispersion Energy =           0.0000000000000000
    PCM Polarization Energy =               0.0000000000000000
    EFP Energy =                            0.0000000000000000
    Total Energy =                       -157.3552336222684289
  Basis Set: (AUG-CC-PVTZ AUX)
    Blend: AUG-CC-PVTZ-RI
    Molecular point group: c1
  Basis Set: AUG-CC-PVTZ
    Blend: AUG-CC-PVTZ
  Basis Set: (AUG-CC-PVTZ AUX)
    Blend: AUG-CC-PVTZ-JKFIT
  Basis Set: (AUG-CC-PVTZ AUX)
    Blend: AUG-CC-PVTZ-JKFIT
	 Reference Energy          =    -157.3552336222684289 [Eh]
	 Singles Energy            =      -0.0000000000000000 [Eh]
	 Same-Spin Energy          =      -0.1654437532582664 [Eh]
	 Opposite-Spin Energy      =      -0.6393218957923006 [Eh]
	 Correlation Energy        =      -0.8047656490505669 [Eh]
	 Total Energy              =    -158.1599992713190090 [Eh]

	 ================> DF-SCS-MP2 Energies <==================
	-----------------------------------------------------------
	 SCS Same-Spin Scale       =       0.3333333333333333 [-]
	 SCS Opposite-Spin Scale   =       1.2000000000000000 [-]
	 SCS Same-Spin Energy      =      -0.0551479177527554 [Eh]
	 SCS Opposite-Spin Energy  =      -0.7671862749507606 [Eh]
	 SCS Correlation Energy    =      -0.8223341927035160 [Eh]
	 SCS Total Energy          =    -158.1775678149719511 [Eh]
	-----------------------------------------------------------

  -Total Gradient:
     Atom            X                  Y                   Z
    ------   -----------------  -----------------  -----------------
       1       -0.000008965576    -0.000001120272    -0.000003978801
       2       -0.000015377408     0.000004281575    -0.000001913450
       3        0.000006558810    -0.000000760136    -0.000003773900
       4        0.000000508391     0.000008363686     0.000030482939
       5        0.000009086430    -0.000005312939    -0.000005570521
       6       -0.000008286505     0.000003440163    -0.000013345983
       7       -0.000488516885    -0.000281042448     0.001954540962
       8        0.000010211586     0.000004995489    -0.000015237893
       9       -0.000004020392    -0.000000417625    -0.000017285491
      10        0.000737745325    -0.000294315470    -0.002919589401
      11        0.000008019095     0.000007173055     0.000002574680
      12        0.000013775150     0.000007842257     0.000011756395
      13        0.000212887644    -0.002661911568    -0.000868611735
      14       -0.000473625662     0.003208784235     0.001849952201

  **** Optimization is complete! (in 6 steps) ****
    Final optimized geometry and variables:
    Molecular point group: c1

    Geometry (in Angstrom), charge = 0, multiplicity = 1:

    H           -2.353524414869     0.037929618670     0.281734840023
    H           -2.207364489943     1.688957676765    -0.310259907694
    H           -1.892871561868     0.334069568374    -1.388674519452
    C           -1.775105603636     0.692704515026    -0.367758608906
    H            0.250316955626     1.363134242742    -0.614128704745
    H           -0.209405823585     1.082618354050     1.049191625862
    C           -0.313057602783     0.691502919247     0.036187775746
    H           -0.241042123566    -1.338837603235     0.671124507912
    H            0.168391943560    -1.115985601829    -1.012237258156
    C            0.306051966552    -0.692321644093    -0.016812713896
    H            2.123653667527    -1.685532113284     0.622146118458
    H            1.974292302686    -0.027746036383     1.190471109756
    H            2.391391359233    -0.365655238106    -0.492129789903
    C            1.781788919381    -0.689614225438     0.348615512932

*** Psi4 exiting successfully. Buy a developer a beer!
