                              Psi4 1.0.0 Driver

  ==> Input File <==

--------------------------------------------------------------------------

memory 1000 mb

molecule butane {
  symmetry C1
  0 1
  H      1.604   0.760   -8.260
  H      1.745   2.388   -8.880
  H      2.043   1.024   -9.930
  C      2.142   1.395   -8.932
  H      4.169   2.051   -9.210
  H      3.731   1.788   -7.539
  C      3.631   1.416   -8.537
  H      3.950   -0.448   -9.556
  H      5.267   0.024   -8.510
  C      4.203   -0.012   -8.612
  H      4.005   -1.856   -7.529
  H      2.543   -0.901   -7.579
  H      3.860   -0.429   -6.532
  C      3.607   -0.865   -7.477
  units Angstrom
}

dih_string = "4 7 10 14 290"
set optking fixed_dihedral = $dih_string

optimize('MP2/6-31G(d)')
--------------------------------------------------------------------------

    Molecular point group: c1
  Charge       = 0
  Multiplicity = 1
  Basis Set: 6-31G(D)
  Basis Set:
  @DF-RHF Final Energy:  -157.29108664138658
    Total Energy =                       -157.2910866413866415
  Basis Set:
    Molecular point group: c1
  Basis Set: 6-31G(D)
  Basis Set:
  Basis Set:
	 Reference Energy          =    -157.2910866413865847 [Eh]
	 Singles Energy            =      -0.0000000000000000 [Eh]
	 Same-Spin Energy          =      -0.1248572685170049 [Eh]
	 Opposite-Spin Energy      =      -0.4206566195095865 [Eh]
	 Correlation Energy        =      -0.5455138880265914 [Eh]
	 Total Energy              =    -157.8366005294131753 [Eh]
	 SCS Total Energy          =    -157.8374936743037438 [Eh]
  Basis Set: 6-31G(D)
  Basis Set:
  @DF-RHF Final Energy:  -157.29472598582072
    Total Energy =                       -157.2947259858207758
  Basis Set:
  Basis Set: 6-31G(D)
  Basis Set:
  @DF-RHF Final Energy:  -157.29578139597359
    Total Energy =                       -157.2957813959735631
  @DF-RHF Final Energy:  -157.29623745755760
    Total Energy =                       -157.2962374575576234
  @DF-RHF Final Energy:  -157.29626319923133
    Total Energy =                       -157.2962631992312481
	 Singles Energy            =      -0.0000000000000000 [Eh]
	 Same-Spin Energy          =      -0.1246200311947298 [Eh]
	 Opposite-Spin Energy      =      -0.4224406847020156 [Eh]
	 Correlation Energy        =      -0.5470607158967453 [Eh]
	 Total Energy              =    -157.8433239151280816 [Eh]
	 SCS Total Energy          =    -157.8447320312720024 [Eh]
  Charge       = 0
  Multiplicity = 1
  Basis Set: 6-31G(D)
  Basis Set:

    Orbital Energies (a.u.)
    -----------------------

    Doubly Occupied:

       1A    -11.215963     2A    -11.215368     3A    -11.209848
       4A    -11.209846     5A     -1.070325     6A     -0.975452
       7A     -0.870816     8A     -0.775759     9A     -0.621622
      10A     -0.620066    11A     -0.573655    12A     -0.533045
      13A     -0.529704    14A     -0.503011    15A     -0.462818
      16A     -0.456313    17A     -0.456199

  @DF-RHF Final Energy:  -157.29625782791834

   => Energetics <=

    Nuclear Repulsion Energy =            132.5239848187738971
    One-Electron Energy =                -473.0408678632834381
    Two-Electron Energy =                 183.2206252165912588
    DFT Exchange-Correlation Energy =       0.0000000000000000
    Empirical Dispersion Energy =           0.0000000000000000
    PCM Polarization Energy =               0.0000000000000000
    EFP Energy =                            0.0000000000000000
    Total Energy =                       -157.2962578279182821
  Basis Set:
    Molecular point group: c1
  Basis Set: 6-31G(D)
  Basis Set:
  Basis Set:
	 Reference Energy          =    -157.2962578279183390 [Eh]
	 Singles Energy            =      -0.0000000000000000 [Eh]
	 Same-Spin Energy          =      -0.1246219076583636 [Eh]
	 Opposite-Spin Energy      =      -0.4224465542428252 [Eh]
	 Correlation Energy        =      -0.5470684619011889 [Eh]
	 Total Energy              =    -157.8433262898195153 [Eh]

	 ================> DF-SCS-MP2 Energies <==================
	-----------------------------------------------------------
	 SCS Same-Spin Scale       =       0.3333333333333333 [-]
	 SCS Opposite-Spin Scale   =       1.2000000000000000 [-]
	 SCS Same-Spin Energy      =      -0.0415406358861212 [Eh]
	 SCS Opposite-Spin Energy  =      -0.5069358650913902 [Eh]
	 SCS Correlation Energy    =      -0.5484765009775114 [Eh]
	 SCS Total Energy          =    -157.8447343288958393 [Eh]
	-----------------------------------------------------------

  -Total Gradient:
     Atom            X                  Y                   Z
    ------   -----------------  -----------------  -----------------
       1       -0.000002686248    -0.000004923447     0.000002582795
       2       -0.000001479756     0.000007941337     0.000000965140
       3       -0.000006337495     0.000003031124     0.000005525210
       4        0.000228930833     0.000095392529    -0.000801141839
       5        0.000018411102    -0.000006848197     0.000016927872
       6       -0.000013281160    -0.000001541479    -0.000001122160
       7       -0.000058979154    -0.000045848454     0.001291222102
       8       -0.000008178678    -0.000008103928     0.000010288382
       9       -0.000003307737     0.000013870190    -0.000024177689
      10       -0.000775790188    -0.000305118024    -0.000979201433
      11        0.000003381055    -0.000008810467     0.000000306488
      12       -0.000008685900     0.000000094004     0.000001031830
      13       -0.000003587626    -0.000008090372    -0.000000762722
      14        0.000631590951     0.000268955185     0.000477556024

  **** Optimization is complete! (in 6 steps) ****
    Final optimized geometry and variables:
    Molecular point group: c1

    Geometry (in Angstrom), charge = 0, multiplicity = 1:

    H           -1.870310273290     0.429446953434     0.142210390443
    H           -1.601680755652     2.026772860465    -0.555787781565
    H           -1.403851915199     0.582157090357    -1.555818286677
    C           -1.244451414223     0.993162456842    -0.554218074386
    H            0.804462696729     1.553294810291    -0.862665934154
    H            0.377786026778     1.348084420041     0.827080679769
    C            0.231261789500     0.922323622348    -0.173281763105
    H            0.594529353534    -0.946496542941    -1.181028983425
    H            1.896884866606    -0.437504694264    -0.120742278725
    C            0.805197996076    -0.494233982609    -0.204022283208
    H            0.738803553997    -2.383174673094     0.869913250381
    H           -0.807389265340    -1.535414594707     0.832572859724
    H            0.487599439442    -0.960614008583     1.889370441532
    C            0.273766176446    -1.394087148836     0.907577511696

*** Psi4 exiting successfully. Buy a developer a beer!
