                               Psi4 1.1 release

  ==> Input File <==

--------------------------------------------------------------------------

memory 1000 mb

molecule butane {
  symmetry C1
  0 1
  H      1.604   0.760   -8.260
  H      1.745   2.388   -8.880
  H      2.043   1.024   -9.930
  C      2.142   1.395   -8.932
  H      4.169   2.051   -9.210
  H      3.731   1.788   -7.539
  C      3.631   1.416   -8.537
  H      3.665   -0.647   -7.940
  H      4.104   -0.384   -9.610
  C      4.203   -0.012   -8.612
  H      6.043   -0.994   -8.101
  H      5.809   0.538   -7.296
  H      6.257   0.498   -8.984
  C      5.691   0.009   -8.218
  units Angstrom
}

dih_string = "7 10 14 13 290"
set optking fixed_dihedral = $dih_string

optimize('MP2/aug-cc-pvtz')
--------------------------------------------------------------------------

    Molecular point group: c1
  Charge       = 0
  Multiplicity = 1
  Basis Set: AUG-CC-PVTZ
    Blend: AUG-CC-PVTZ
  Basis Set: (AUG-CC-PVTZ AUX)
    Blend: AUG-CC-PVTZ-JKFIT
  @DF-RHF Final Energy:  -157.35243683564823
    Total Energy =                       -157.3524368356482341
  Basis Set: (AUG-CC-PVTZ AUX)
    Blend: AUG-CC-PVTZ-RI
    Molecular point group: c1
  Basis Set: AUG-CC-PVTZ
    Blend: AUG-CC-PVTZ
  Basis Set: (AUG-CC-PVTZ AUX)
    Blend: AUG-CC-PVTZ-JKFIT
  Basis Set: (AUG-CC-PVTZ AUX)
    Blend: AUG-CC-PVTZ-JKFIT
	 Reference Energy          =    -157.3524368356482341 [Eh]
	 Singles Energy            =      -0.0000000000000000 [Eh]
	 Same-Spin Energy          =      -0.1653747048339409 [Eh]
	 Opposite-Spin Energy      =      -0.6387044316838824 [Eh]
	 Correlation Energy        =      -0.8040791365178233 [Eh]
	 Total Energy              =    -158.1565159721660621 [Eh]
	 SCS Total Energy          =    -158.1740070552802138 [Eh]
  @DF-RHF Final Energy:  -157.35508268920015
    Total Energy =                       -157.3550826892001453
  @DF-RHF Final Energy:  -157.35587348857479
    Total Energy =                       -157.3558734885747867
  @DF-RHF Final Energy:  -157.35610183636257
    Total Energy =                       -157.3561018363625692
  Charge       = 0
  Multiplicity = 1
  Basis Set: AUG-CC-PVTZ
    Blend: AUG-CC-PVTZ
  Basis Set: (AUG-CC-PVTZ AUX)
    Blend: AUG-CC-PVTZ-JKFIT

    Orbital Energies (a.u.)
    -----------------------

    Doubly Occupied:

       1A    -11.211373     2A    -11.210733     3A    -11.206027
       4A    -11.206020     5A     -1.074357     6A     -0.982200
       7A     -0.861001     8A     -0.787826     9A     -0.641170
      10A     -0.585457    11A     -0.577168    12A     -0.568426
      13A     -0.514232    14A     -0.494767    15A     -0.469929
      16A     -0.461239    17A     -0.456253

  @DF-RHF Final Energy:  -157.35609647182957

   => Energetics <=

    Nuclear Repulsion Energy =            131.5377494200985780
    One-Electron Energy =                -471.1713368466815268
    Two-Electron Energy =                 182.2774909547533753
    DFT Exchange-Correlation Energy =       0.0000000000000000
    Empirical Dispersion Energy =           0.0000000000000000
    PCM Polarization Energy =               0.0000000000000000
    EFP Energy =                            0.0000000000000000
    Total Energy =                       -157.3560964718295736
  Basis Set: (AUG-CC-PVTZ AUX)
    Blend: AUG-CC-PVTZ-RI
    Molecular point group: c1
  Basis Set: AUG-CC-PVTZ
    Blend: AUG-CC-PVTZ
  Basis Set: (AUG-CC-PVTZ AUX)
    Blend: AUG-CC-PVTZ-JKFIT
  Basis Set: (AUG-CC-PVTZ AUX)
    Blend: AUG-CC-PVTZ-JKFIT
	 Reference Energy          =    -157.3560964718295736 [Eh]
	 Singles Energy            =      -0.0000000000000000 [Eh]
	 Same-Spin Energy          =      -0.1654512566327608 [Eh]
	 Opposite-Spin Energy      =      -0.6391914086078860 [Eh]
	 Correlation Energy        =      -0.8046426652406469 [Eh]
	 Total Energy              =    -158.1607391370702089 [Eh]

	 ================> DF-SCS-MP2 Energies <==================
	-----------------------------------------------------------
	 SCS Same-Spin Scale       =       0.3333333333333333 [-]
	 SCS Opposite-Spin Scale   =       1.2000000000000000 [-]
	 SCS Same-Spin Energy      =      -0.0551504188775869 [Eh]
	 SCS Opposite-Spin Energy  =      -0.7670296903294632 [Eh]
	 SCS Correlation Energy    =      -0.8221801092070502 [Eh]
	 SCS Total Energy          =    -158.1782765810366129 [Eh]
	-----------------------------------------------------------

  -Total Gradient:
     Atom            X                  Y                   Z
    ------   -----------------  -----------------  -----------------
       1       -0.000039443259    -0.000027736185     0.000027002762
       2       -0.000014506711     0.000045049112     0.000002552759
       3       -0.000008905956    -0.000016535686    -0.000050041387
       4        0.000111516542    -0.000036494447     0.000038926367
       5        0.000017630506     0.000005562204    -0.000039856163
       6       -0.000012251602    -0.000016392653     0.000004511681
       7       -0.000273921532    -0.000143721942     0.001117262854
       8        0.000006570908     0.000000056251     0.000009332885
       9        0.000008733120     0.000017153370    -0.000048662838
      10        0.000424695729    -0.000146445650    -0.001657380504
      11        0.000007720835    -0.000035019001     0.000004188635
      12        0.000019066485     0.000033306571     0.000059953506
      13        0.000211939175    -0.001370089339    -0.000767162538
      14       -0.000458844240     0.001691307394     0.001299371980

  **** Optimization is complete! (in 5 steps) ****
    Final optimized geometry and variables:
    Molecular point group: c1

    Geometry (in Angstrom), charge = 0, multiplicity = 1:

    H           -2.352183160549     0.046299777505     0.290351661009
    H           -2.202237220382     1.693409834985    -0.311634979834
    H           -1.895555609971     0.331281923956    -1.383234144921
    C           -1.773454145651     0.695349529097    -0.364637629533
    H            0.252328681885     1.360873346652    -0.619055672005
    H           -0.202657548381     1.085088878036     1.046480209015
    C           -0.310118620906     0.691822207916     0.034539016938
    H           -0.244837334835    -1.347328786068     0.656217889997
    H            0.177384444938    -1.105714259188    -1.022720884384
    C            0.306096146991    -0.692781472904    -0.021176686361
    H            2.158835216214    -1.705600352059     0.465124629114
    H            1.939531182968    -0.166895983649     1.290593201066
    H            2.371859516771    -0.205674672810    -0.418382357964
    C            1.777269329386    -0.693192607453     0.351801085383

*** Psi4 exiting successfully. Buy a developer a beer!
