                               Psi4 1.1 release

  ==> Input File <==

--------------------------------------------------------------------------

molecule phepyr {
  symmetry C1
  0 1
  C      1.885   -1.036   -0.112
  C      0.807   -0.463   0.561
  C      2.921   -1.631   0.608
  C      0.764   -0.484   1.955
  C      2.878   -1.652   2.002
  C      2.314   -0.059   4.853
  C      1.151   -2.163   4.785
  C      2.243   -0.126   6.236
  C      1.133   -2.136   6.170
  C      1.800   -1.079   2.676
  C      1.755   -1.100   4.122
  N      1.666   -1.142   6.915
  H      1.917   -1.021   -1.198
  H      -0.001   -0.002   0.000
  H      3.760   -2.079   0.084
  H      -0.084   -0.033   2.466
  H      3.693   -2.120   2.550
  H      2.792   0.788   4.372
  H      0.705   -2.994   4.247
  H      2.663   0.662   6.852
  H      0.676   -2.942   6.735
  units Angstrom
}

dih_string = "4 10 11 6 270"
set optking fixed_dihedral = $dih_string

optimize('MP2/aug-cc-PVTZ')
--------------------------------------------------------------------------

    Molecular point group: c1
  Charge       = 0
  Multiplicity = 1
  Basis Set: AUG-CC-PVTZ
    Blend: AUG-CC-PVTZ
  Basis Set: (AUG-CC-PVTZ AUX)
    Blend: AUG-CC-PVTZ-JKFIT
  @DF-RHF Final Energy:  -476.39474341065187
    Total Energy =                       -476.3947434106519268
  Basis Set: (AUG-CC-PVTZ AUX)
    Blend: AUG-CC-PVTZ-RI
    Molecular point group: c1
  Basis Set: AUG-CC-PVTZ
    Blend: AUG-CC-PVTZ
  Basis Set: (AUG-CC-PVTZ AUX)
    Blend: AUG-CC-PVTZ-JKFIT
  Basis Set: (AUG-CC-PVTZ AUX)
    Blend: AUG-CC-PVTZ-JKFIT
	 Reference Energy          =    -476.3947434106518699 [Eh]
	 Singles Energy            =      -0.0000000000000001 [Eh]
	 Same-Spin Energy          =      -0.5341636284861694 [Eh]
	 Opposite-Spin Energy      =      -1.6424650624817350 [Eh]
	 Correlation Energy        =      -2.1766286909679042 [Eh]
	 Total Energy              =    -478.5713721016197724 [Eh]
	 SCS Total Energy          =    -478.5437560284586880 [Eh]
    Molecular point group: c1
  Charge       = 0
  Multiplicity = 1
  Basis Set: AUG-CC-PVTZ
    Blend: AUG-CC-PVTZ
  Basis Set: (AUG-CC-PVTZ AUX)
    Blend: AUG-CC-PVTZ-JKFIT

    Orbital Energies (a.u.)
    -----------------------

    Doubly Occupied:

       1A    -15.564060     2A    -11.273298     3A    -11.273252
       4A    -11.264400     5A    -11.251751     6A    -11.242933
       7A    -11.242837     8A    -11.241732     9A    -11.241564
      10A    -11.239820    11A    -11.237974    12A    -11.237935
      13A     -1.258328    14A     -1.173807    15A     -1.107644
      16A     -1.034723    17A     -1.025778    18A     -1.018895
      19A     -0.879293    20A     -0.859178    21A     -0.838303
      22A     -0.807505    23A     -0.730723    24A     -0.688747
      25A     -0.669152    26A     -0.654263    27A     -0.639540
      28A     -0.634056    29A     -0.597522    30A     -0.596554
      31A     -0.582158    32A     -0.540794    33A     -0.527667
      34A     -0.506852    35A     -0.504858    36A     -0.504716
      37A     -0.419021    38A     -0.379138    39A     -0.352780
      40A     -0.344144    41A     -0.343154

  @DF-RHF Final Energy:  -476.39952343585998

   => Energetics <=

    Nuclear Repulsion Energy =            605.2310800934691315
    One-Electron Energy =               -1844.1995114963017386
    Two-Electron Energy =                 762.5689079669726880
    DFT Exchange-Correlation Energy =       0.0000000000000000
    Empirical Dispersion Energy =           0.0000000000000000
    PCM Polarization Energy =               0.0000000000000000
    EFP Energy =                            0.0000000000000000
    Total Energy =                       -476.3995234358600328
  Basis Set: (AUG-CC-PVTZ AUX)
    Blend: AUG-CC-PVTZ-RI
    Molecular point group: c1

    Geometry (in Angstrom), charge = 0, multiplicity = 1:

       Center              X                  Y                   Z               Mass
    ------------   -----------------  -----------------  -----------------  -----------------
           C          0.110012568200     0.053588784605    -3.544792906031    12.000000000000
           C         -0.962380248368     0.623447081238    -2.873035160278    12.000000000000
           C          1.139718849110    -0.537732975972    -2.826142308856    12.000000000000
           C         -1.004623364746     0.602073569718    -1.484541204214    12.000000000000
           C          1.096176243237    -0.558406310172    -1.437670763626    12.000000000000
           C          0.530338800324     1.018372199443     1.463651592909    12.000000000000
           C         -0.618767877353    -1.061578979173     1.396542828628    12.000000000000
           C          0.461416855410     0.953563564102     2.847437521011    12.000000000000
           C         -0.637945455404    -1.037730509849     2.782795114531    12.000000000000
           C          0.024192790079     0.010934423385    -0.756727478376    12.000000000000
           C         -0.021401543455    -0.010670091237     0.712551343026    12.000000000000
           N         -0.110153956631    -0.052697075815     3.519559347256    14.003074004780
           H          0.142592861977     0.069057428231    -4.624052013013     1.007825032070
           H         -1.765950951186     1.082881904358    -3.429538782286     1.007825032070
           H          1.975136650776    -0.982996452326    -3.345894191576     1.007825032070
           H         -1.841958188906     1.047117000243    -0.966532535395     1.007825032070
           H          1.900306479440    -1.020259200364    -0.882988024555     1.007825032070
           H          1.005219626816     1.858893746404     0.980901392439     1.007825032070
           H         -1.061646515793    -1.885983072881     0.858648744443     1.007825032070
           H          0.881833540784     1.740959540780     3.457905858707     1.007825032070
           H         -1.094990653972    -1.842603717856     3.342145338514     1.007825032070

  Basis Set: AUG-CC-PVTZ
    Blend: AUG-CC-PVTZ
  Basis Set: (AUG-CC-PVTZ AUX)
    Blend: AUG-CC-PVTZ-JKFIT
  Basis Set: (AUG-CC-PVTZ AUX)
    Blend: AUG-CC-PVTZ-JKFIT
	 Reference Energy          =    -476.3995234358599760 [Eh]
	 Singles Energy            =      -0.0000000000000002 [Eh]
	 Same-Spin Energy          =      -0.5333975835507447 [Eh]
	 Opposite-Spin Energy      =      -1.6405216982177047 [Eh]
	 Correlation Energy        =      -2.1739192817684492 [Eh]
	 Total Energy              =    -478.5734427176284385 [Eh]

	 ================> DF-SCS-MP2 Energies <==================
	-----------------------------------------------------------
	 SCS Same-Spin Scale       =       0.3333333333333333 [-]
	 SCS Opposite-Spin Scale   =       1.2000000000000000 [-]
	 SCS Same-Spin Energy      =      -0.1777991945169149 [Eh]
	 SCS Opposite-Spin Energy  =      -1.9686260378612455 [Eh]
	 SCS Correlation Energy    =      -2.1464252323781605 [Eh]
	 SCS Total Energy          =    -478.5459486682381112 [Eh]
	-----------------------------------------------------------

  -Total Gradient:
     Atom            X                  Y                   Z
    ------   -----------------  -----------------  -----------------
       1       -0.000076605826     0.000119220740     0.000596583595
       2        0.000119980830     0.000046524854    -0.000617542004
       3        0.000192183253    -0.000052661261    -0.000620345234
       4        0.001077145914    -0.000642756706     0.002064318727
       5       -0.001415840115     0.000745578760     0.001985705476
       6        0.000351269662     0.000191268954    -0.002595047540
       7       -0.000275986610    -0.000519762410    -0.002111677483
       8        0.000654534274     0.001193304579    -0.003488051663
       9       -0.000593374333    -0.000950838336    -0.003927418023
      10        0.000097024264    -0.000215058066     0.000014200924
      11        0.000045496121     0.000290389008     0.002547370494
      12       -0.000057117167    -0.000063293395     0.005576188822
      13       -0.000003500442    -0.000029118552    -0.000488679769
      14       -0.000284176276     0.000088139546    -0.000450687520
      15        0.000220005069    -0.000154183276    -0.000421129285
      16       -0.000731038187     0.000427160281    -0.000696165079
      17        0.000781419973    -0.000421008260    -0.000665185333
      18        0.000038346122     0.000202366816     0.000488562429
      19       -0.000072308564    -0.000177315094     0.000350594927
      20       -0.000304376745    -0.000464553711     0.001190274264
      21        0.000236918785     0.000386595526     0.001268129281

*** Psi4 exiting successfully. Buy a developer a beer!
