                               Psi4 1.1 release

  ==> Input File <==

--------------------------------------------------------------------------

memory 5 Gb

molecule phepyr {
  symmetry C1
  0 1
  C      1.885   -1.036   -0.112
  C      0.807   -0.463   0.561
  C      2.921   -1.631   0.608
  C      0.764   -0.484   1.955
  C      2.878   -1.652   2.002
  C      2.314   -0.059   4.853
  C      1.151   -2.163   4.785
  C      2.243   -0.126   6.236
  C      1.133   -2.136   6.170
  C      1.800   -1.079   2.676
  C      1.755   -1.100   4.122
  N      1.666   -1.142   6.915
  H      1.917   -1.021   -1.198
  H      -0.001   -0.002   0.000
  H      3.760   -2.079   0.084
  H      -0.084   -0.033   2.466
  H      3.693   -2.120   2.550
  H      2.792   0.788   4.372
  H      0.705   -2.994   4.247
  H      2.663   0.662   6.852
  H      0.676   -2.942   6.735
  units Angstrom
}

dih_string = "4 10 11 6 270"
set optking { opt_coordinates = cartesian
              fixed_dihedral = $dih_string
              dynamic_level = 1
              geom_maxiter = 250
              print_trajectory_xyz_file = True }

optimize('MP2/aug-cc-PVTZ')
--------------------------------------------------------------------------

    Molecular point group: c1
  Charge       = 0
  Multiplicity = 1
  Basis Set: AUG-CC-PVTZ
    Blend: AUG-CC-PVTZ
  Basis Set: (AUG-CC-PVTZ AUX)
    Blend: AUG-CC-PVTZ-JKFIT
  @DF-RHF Final Energy:  -476.39474341066153
    Total Energy =                       -476.3947434106614764
  Basis Set: (AUG-CC-PVTZ AUX)
    Blend: AUG-CC-PVTZ-RI
    Molecular point group: c1
  Basis Set: AUG-CC-PVTZ
    Blend: AUG-CC-PVTZ
  Basis Set: (AUG-CC-PVTZ AUX)
    Blend: AUG-CC-PVTZ-JKFIT
  Basis Set: (AUG-CC-PVTZ AUX)
    Blend: AUG-CC-PVTZ-JKFIT
	 Reference Energy          =    -476.3947434106615333 [Eh]
	 Singles Energy            =      -0.0000000000000001 [Eh]
	 Same-Spin Energy          =      -0.5341636284866591 [Eh]
	 Opposite-Spin Energy      =      -1.6424650624802690 [Eh]
	 Correlation Energy        =      -2.1766286909669281 [Eh]
	 Total Energy              =    -478.5713721016284694 [Eh]
	 SCS Total Energy          =    -478.5437560284667597 [Eh]
  @DF-RHF Final Energy:  -476.39891916936733
    Total Energy =                       -476.3989191693673320
  @DF-RHF Final Energy:  -476.39984645124497
    Total Energy =                       -476.3998464512449118
  @DF-RHF Final Energy:  -476.39983369502181
    Total Energy =                       -476.3998336950218118
  @DF-RHF Final Energy:  -476.39988133844975
    Total Energy =                       -476.3998813384497453
  @DF-RHF Final Energy:  -476.39983369145841
    Total Energy =                       -476.3998336914584115
  @DF-RHF Final Energy:  -476.39986935354500
    Total Energy =                       -476.3998693535450002
  @DF-RHF Final Energy:  -476.39987975861499
    Total Energy =                       -476.3998797586150431
  Charge       = 0
  Multiplicity = 1
  Basis Set: AUG-CC-PVTZ
    Blend: AUG-CC-PVTZ
  Basis Set: (AUG-CC-PVTZ AUX)
    Blend: AUG-CC-PVTZ-JKFIT

    Orbital Energies (a.u.)
    -----------------------

    Doubly Occupied:

       1A    -15.563461     2A    -11.272927     3A    -11.272910
       4A    -11.264233     5A    -11.251689     6A    -11.242856
       7A    -11.242726     8A    -11.241607     9A    -11.241439
      10A    -11.239930    11A    -11.237799    12A    -11.237760
      13A     -1.259887    14A     -1.173868    15A     -1.107397
      16A     -1.034842    17A     -1.026232    18A     -1.018751
      19A     -0.879304    20A     -0.859302    21A     -0.838569
      22A     -0.807790    23A     -0.730905    24A     -0.689122
      25A     -0.669772    26A     -0.653954    27A     -0.639573
      28A     -0.634174    29A     -0.597418    30A     -0.597052
      31A     -0.582519    32A     -0.541521    33A     -0.527917
      34A     -0.507544    35A     -0.504874    36A     -0.504464
      37A     -0.417887    38A     -0.379249    39A     -0.352778
      40A     -0.343899    41A     -0.343353

  @DF-RHF Final Energy:  -476.39987263491957

   => Energetics <=

    Nuclear Repulsion Energy =            605.3104500383830100
    One-Electron Energy =               -1844.3541379172286270
    Two-Electron Energy =                 762.6438152439259284
    DFT Exchange-Correlation Energy =       0.0000000000000000
    Empirical Dispersion Energy =           0.0000000000000000
    PCM Polarization Energy =               0.0000000000000000
    EFP Energy =                            0.0000000000000000
    Total Energy =                       -476.3998726349195749
  Basis Set: (AUG-CC-PVTZ AUX)
    Blend: AUG-CC-PVTZ-RI
    Molecular point group: c1
  Basis Set: AUG-CC-PVTZ
    Blend: AUG-CC-PVTZ
  Basis Set: (AUG-CC-PVTZ AUX)
    Blend: AUG-CC-PVTZ-JKFIT
  Basis Set: (AUG-CC-PVTZ AUX)
    Blend: AUG-CC-PVTZ-JKFIT
	 Reference Energy          =    -476.3998726349195749 [Eh]
	 Singles Energy            =      -0.0000000000000001 [Eh]
	 Same-Spin Energy          =      -0.5333538474723011 [Eh]
	 Opposite-Spin Energy      =      -1.6403187284602960 [Eh]
	 Correlation Energy        =      -2.1736725759325970 [Eh]
	 Total Energy              =    -478.5735452108521599 [Eh]

	 ================> DF-SCS-MP2 Energies <==================
	-----------------------------------------------------------
	 SCS Same-Spin Scale       =       0.3333333333333333 [-]
	 SCS Opposite-Spin Scale   =       1.2000000000000000 [-]
	 SCS Same-Spin Energy      =      -0.1777846158241004 [Eh]
	 SCS Opposite-Spin Energy  =      -1.9683824741523552 [Eh]
	 SCS Correlation Energy    =      -2.1461670899764558 [Eh]
	 SCS Total Energy          =    -478.5460397248960476 [Eh]
	-----------------------------------------------------------

  -Total Gradient:
     Atom            X                  Y                   Z
    ------   -----------------  -----------------  -----------------
       1        0.000022310120     0.000035032003    -0.000003635765
       2        0.000030118135     0.000027916791     0.000007620595
       3       -0.000022220597     0.000022860606    -0.000004035029
       4       -0.000006084810    -0.000013690901     0.000012744887
       5       -0.000050158712    -0.000062802599     0.000026865839
       6        0.000063218022    -0.000092149124     0.000055600245
       7        0.000005743550     0.000030922284     0.000080140171
       8       -0.000042473248     0.000092558884    -0.000066804218
       9       -0.000049158706    -0.000017979439    -0.000118827444
      10       -0.000010712061    -0.000004726056    -0.000069525403
      11       -0.000003308292     0.000037753016     0.000010103583
      12        0.000057935087    -0.000024385039     0.000045347110
      13       -0.000000404954    -0.000009623918    -0.000011370113
      14       -0.000020373793    -0.000028332442     0.000016273725
      15        0.000012585967    -0.000012409598     0.000011862887
      16       -0.000003590087     0.000013916350    -0.000012663443
      17        0.000032744453     0.000020236572    -0.000012715491
      18       -0.000013239234     0.000025359248    -0.000000811677
      19        0.000008448958    -0.000019883410    -0.000006129497
      20       -0.000006786288    -0.000017603455     0.000008325402
      21       -0.000004593510    -0.000002969784     0.000031633636

  **** Optimization is complete! (in 7 steps) ****
    Final optimized geometry and variables:
    Molecular point group: c1

    Geometry (in Angstrom), charge = 0, multiplicity = 1:

    C            0.110386361188     0.053722363952    -3.545189759325
    C           -0.962693204523     0.623817883280    -2.874026437326
    C            1.139927083944    -0.537904052069    -2.826191785346
    C           -1.005736784855     0.602489851681    -1.486970087831
    C            1.096324247158    -0.559165401514    -1.439140172191
    C            0.528877697531     1.016951801041     1.466389289975
    C           -0.617817696166    -1.060231059394     1.399903894317
    C            0.461616779948     0.953200830403     2.850125429537
    C           -0.636886956464    -1.037507337207     2.786390924473
    C            0.023415747849     0.011049576033    -0.759040731286
    C           -0.022104649701    -0.010842122914     0.710672316164
    N           -0.109106841189    -0.052653353968     3.516797443374
    H            0.143985940016     0.070052567626    -4.623694717348
    H           -1.765577247919     1.084116433060    -3.429450958483
    H            1.975997489749    -0.982406091765    -3.344307462659
    H           -1.838590176148     1.045140143901    -0.960941336142
    H            1.895582286527    -1.017842062308    -0.876011746315
    H            1.003259308365     1.856187258815     0.980226357162
    H           -1.060578873224    -1.884047773162     0.860462192754
    H            0.885396745254     1.745072936956     3.451792021537
    H           -1.096466858930    -1.846498590634     3.336910606575

*** Psi4 exiting successfully. Buy a developer a beer!
