                              Psi4 1.0.0 Driver

  ==> Input File <==

--------------------------------------------------------------------------

memory 1000 mb

molecule butane {
  symmetry C1
  0 1
  H      1.604   0.760   -8.260
  H      1.745   2.388   -8.880
  H      2.043   1.024   -9.930
  C      2.142   1.395   -8.932
  H      4.169   2.051   -9.210
  H      3.731   1.788   -7.539
  C      3.631   1.416   -8.537
  H      4.566   -0.301   -7.648
  H      3.434   -0.688   -8.921
  C      4.203   -0.012   -8.612
  H      5.756   -1.042   -9.680
  H      6.128   0.626   -9.320
  H      4.996   0.239   -10.593
  C      5.358   -0.050   -9.629
  units Angstrom
}

dih_string = "4 7 10 14 120"
set optking fixed_dihedral = $dih_string

optimize('B3LYP/cc-PVDZ')
--------------------------------------------------------------------------

    Molecular point group: c1
  Charge       = 0
  Multiplicity = 1
  Basis Set: CC-PVDZ
   => B3LYP Composite Functional <=
  Basis Set:
  @DF-RKS Final Energy:  -158.44350694225696
    Total Energy =                       -158.4435069422569597
    Molecular point group: c1
  Basis Set: CC-PVDZ
  Basis Set:
   => B3LYP Composite Functional <=
  Basis Set: CC-PVDZ
   => B3LYP Composite Functional <=
  Basis Set:
  @DF-RKS Final Energy:  -158.44945798360530
    Total Energy =                       -158.4494579836052992
  Basis Set: CC-PVDZ
  Basis Set:
   => B3LYP Composite Functional <=
  Basis Set: CC-PVDZ
   => B3LYP Composite Functional <=
  Basis Set:
  @DF-RKS Final Energy:  -158.45226130095486
    Total Energy =                       -158.4522613009548593
  Basis Set: CC-PVDZ
  Basis Set:
  @DF-RKS Final Energy:  -158.45314240687389
    Total Energy =                       -158.4531424068738943
   => B3LYP Composite Functional <=
  Basis Set:
  @DF-RKS Final Energy:  -158.45334612636535
    Total Energy =                       -158.4533461263653464
  Basis Set: CC-PVDZ
  Basis Set:
   => B3LYP Composite Functional <=
  Basis Set: CC-PVDZ
   => B3LYP Composite Functional <=
  Basis Set:
  @DF-RKS Final Energy:  -158.45335377625241
    Total Energy =                       -158.4533537762524134
  Basis Set: CC-PVDZ
  Basis Set:
   => B3LYP Composite Functional <=
  Charge       = 0
  Multiplicity = 1
  Basis Set: CC-PVDZ
   => B3LYP Composite Functional <=
  Basis Set:

    Orbital Energies (a.u.)
    -----------------------

    Doubly Occupied:

       1A    -10.179964     2A    -10.179814     3A    -10.176269
       4A    -10.176265     5A     -0.788226     6A     -0.719831
       7A     -0.628223     8A     -0.571056     9A     -0.456749
      10A     -0.433105    11A     -0.418814    12A     -0.394053
      13A     -0.361799    14A     -0.361438    15A     -0.326244
      16A     -0.319563    17A     -0.314650

  @DF-RKS Final Energy:  -158.45335392173789

   => Energetics <=

    Nuclear Repulsion Energy =            130.1007000839959460
    One-Electron Energy =                -468.6991912635422750
    Two-Electron Energy =                 200.7266026803068826
    DFT Exchange-Correlation Energy =     -20.5814654224984359
    Empirical Dispersion Energy =           0.0000000000000000
    PCM Polarization Energy =               0.0000000000000000
    EFP Energy =                            0.0000000000000000
    Total Energy =                       -158.4533539217378859
    Molecular point group: c1
  Basis Set: CC-PVDZ
  Basis Set:
   => B3LYP Composite Functional <=

  -Total Gradient:
     Atom            X                  Y                   Z
    ------   -----------------  -----------------  -----------------
       1        0.000004972989     0.000006850234    -0.000003631618
       2       -0.000005426750    -0.000001969242    -0.000005902200
       3       -0.000007445167     0.000002173314     0.000002147924
       4        0.000057205431     0.000020233420    -0.000126237360
       5        0.000002692761    -0.000011980817     0.000015080196
       6       -0.000004102186    -0.000005923788    -0.000002576633
       7       -0.000107236712    -0.000016754784     0.000129366284
       8        0.000002500289     0.000005796520    -0.000004904384
       9        0.000004253283     0.000013379806     0.000013648814
      10        0.000152887640     0.000024526837     0.000066882578
      11        0.000001963409     0.000001404922    -0.000007776166
      12       -0.000006374612    -0.000007099326    -0.000000208326
      13        0.000007440817    -0.000002293068    -0.000000984577
      14       -0.000105973748    -0.000028810486    -0.000086209267

  **** Optimization is complete! (in 7 steps) ****
    Final optimized geometry and variables:
    Molecular point group: c1

    Geometry (in Angstrom), charge = 0, multiplicity = 1:

    H           -2.315320900005     0.040065553791     0.701789709794
    H           -2.182054120094     1.710842189004     0.102266791568
    H           -1.891920157239     0.342043060774    -0.998996368820
    C           -1.740021764175     0.703113311329     0.032979431159
    H            0.276251930746     1.421543720902    -0.256445807538
    H           -0.138238474561     1.114099287489     1.424491843388
    C           -0.253787125165     0.711043014632     0.403387514982
    H            0.779742905609    -0.999875793294     1.296825868525
    H           -0.334956547425    -1.431999662471     0.007410036541
    C            0.420289039660    -0.681398491797     0.302932652289
    H            2.030317136896    -1.737857100540    -0.745967171658
    H            2.385622959522    -0.027539730055    -0.403535405598
    H            1.254000327413    -0.455629900370    -1.707109988451
    C            1.584988473505    -0.730716285116    -0.690649323227

*** Psi4 exiting successfully. Buy a developer a beer!
