                               Psi4 1.1 release

  ==> Input File <==

--------------------------------------------------------------------------

memory 5 Gb

molecule phepyrOH_neutral {
  symmetry C1
  0 1
  C      1.885   -1.036   -0.112
  C      2.878   -1.652   2.002
  C      0.807   -0.463   0.561
  C      1.800   -1.079   2.676
  C      4.907   -3.081   0.581
  C      4.251   -1.944   -1.435
  C      5.962   -3.625   -0.133
  C      5.336   -2.540   -2.059
  C      2.921   -1.631   0.608
  C      4.040   -2.225   -0.090
  C      0.764   -0.484   1.955
  N      6.200   -3.376   -1.441
  O      -0.288   0.076   2.612
  H      1.904   -1.012   -1.199
  H      3.678   -2.112   2.578
  H      0.003   -0.001   -0.006
  H      1.772   -1.098   3.762
  H      4.773   -3.325   1.630
  H      3.596   -1.282   -1.991
  H      6.665   -4.300   0.344
  H      5.545   -2.352   -3.107
  H      -0.175   -0.018   3.571
  units Angstrom
}

dih_string = "1 9 10 5 195"
set optking fixed_dihedral = $dih_string

optimize('MP2/aug-cc-PVTZ')
--------------------------------------------------------------------------

    Molecular point group: c1
  Charge       = 0
  Multiplicity = 1
  Basis Set: AUG-CC-PVTZ
    Blend: AUG-CC-PVTZ
  Basis Set: (AUG-CC-PVTZ AUX)
    Blend: AUG-CC-PVTZ-JKFIT
  @DF-RHF Final Energy:  -551.28159838673002
    Total Energy =                       -551.2815983867300247
  Basis Set: (AUG-CC-PVTZ AUX)
    Blend: AUG-CC-PVTZ-RI
    Molecular point group: c1
  Basis Set: AUG-CC-PVTZ
    Blend: AUG-CC-PVTZ
  Basis Set: (AUG-CC-PVTZ AUX)
    Blend: AUG-CC-PVTZ-JKFIT
  Basis Set: (AUG-CC-PVTZ AUX)
    Blend: AUG-CC-PVTZ-JKFIT
	 Reference Energy          =    -551.2815983867300247 [Eh]
	 Singles Energy            =      -0.0000000000000000 [Eh]
	 Same-Spin Energy          =      -0.6056768805897023 [Eh]
	 Opposite-Spin Energy      =      -1.8321671131956903 [Eh]
	 Correlation Energy        =      -2.4378439937853926 [Eh]
	 Total Energy              =    -553.7194423805153747 [Eh]
	 SCS Total Energy          =    -553.6820912160947046 [Eh]
  @DF-RHF Final Energy:  -551.28891517644274
    Total Energy =                       -551.2889151764427424
  @DF-RHF Final Energy:  -551.29121114263558
    Total Energy =                       -551.2912111426355750
  @DF-RHF Final Energy:  -551.29127893141936
    Total Energy =                       -551.2912789314193560
  Charge       = 0
  Multiplicity = 1
  Basis Set: AUG-CC-PVTZ
    Blend: AUG-CC-PVTZ
  Basis Set: (AUG-CC-PVTZ AUX)
    Blend: AUG-CC-PVTZ-JKFIT

    Orbital Energies (a.u.)
    -----------------------

    Doubly Occupied:

       1A    -20.603896     2A    -15.558433     3A    -11.315137
       4A    -11.270449     5A    -11.270340     6A    -11.267034
       7A    -11.254400     8A    -11.252068     9A    -11.248092
      10A    -11.244509    11A    -11.238041    12A    -11.234465
      13A    -11.234286    14A     -1.421185    15A     -1.256772
      16A     -1.176093    17A     -1.105497    18A     -1.040554
      19A     -1.029361    20A     -1.013992    21A     -0.883768
      22A     -0.874777    23A     -0.841231    24A     -0.814182
      25A     -0.752254    26A     -0.726809    27A     -0.687021
      28A     -0.665569    29A     -0.651896    30A     -0.635062
      31A     -0.612825    32A     -0.609244    33A     -0.605403
      34A     -0.589799    35A     -0.580364    36A     -0.548218
      37A     -0.536092    38A     -0.525816    39A     -0.502680
      40A     -0.494120    41A     -0.416356    42A     -0.401517
      43A     -0.358167    44A     -0.346448    45A     -0.306314

  @DF-RHF Final Energy:  -551.29129924918857

   => Energetics <=

    Nuclear Repulsion Energy =            697.4727259022872659
    One-Electron Energy =               -2131.5269736137047403
    Two-Electron Energy =                 882.7629484622289056
    DFT Exchange-Correlation Energy =       0.0000000000000000
    Empirical Dispersion Energy =           0.0000000000000000
    PCM Polarization Energy =               0.0000000000000000
    EFP Energy =                            0.0000000000000000
    Total Energy =                       -551.2912992491885689
  Basis Set: (AUG-CC-PVTZ AUX)
    Blend: AUG-CC-PVTZ-RI
    Molecular point group: c1
  Basis Set: AUG-CC-PVTZ
    Blend: AUG-CC-PVTZ
  Basis Set: (AUG-CC-PVTZ AUX)
    Blend: AUG-CC-PVTZ-JKFIT
  Basis Set: (AUG-CC-PVTZ AUX)
    Blend: AUG-CC-PVTZ-JKFIT
	 Reference Energy          =    -551.2912992491885689 [Eh]
	 Singles Energy            =      -0.0000000000000012 [Eh]
	 Same-Spin Energy          =      -0.6042787953260024 [Eh]
	 Opposite-Spin Energy      =      -1.8290056640618209 [Eh]
	 Correlation Energy        =      -2.4332844593878247 [Eh]
	 Total Energy              =    -553.7245837085763469 [Eh]

	 ================> DF-SCS-MP2 Energies <==================
	-----------------------------------------------------------
	 SCS Same-Spin Scale       =       0.3333333333333333 [-]
	 SCS Opposite-Spin Scale   =       1.2000000000000000 [-]
	 SCS Same-Spin Energy      =      -0.2014262651086675 [Eh]
	 SCS Opposite-Spin Energy  =      -2.1948067968741851 [Eh]
	 SCS Correlation Energy    =      -2.3962330619828540 [Eh]
	 SCS Total Energy          =    -553.6875323111713669 [Eh]
	-----------------------------------------------------------

  -Total Gradient:
     Atom            X                  Y                   Z
    ------   -----------------  -----------------  -----------------
       1        0.001249760364     0.001848751146     0.000147836619
       2       -0.000045395781    -0.000024290891    -0.000028731728
       3       -0.000070139858     0.000102050415     0.000064771897
       4        0.000086300235    -0.000035364922    -0.000017811368
       5        0.001211402961     0.001822725986     0.000546436682
       6       -0.000019458972     0.000001329366     0.000108922484
       7        0.000089221601     0.000022005021    -0.000029251707
       8        0.000005203080    -0.000074887862    -0.000017751356
       9       -0.000986524358    -0.002076383555     0.000109747812
      10       -0.001447998612    -0.001648483224    -0.000842528005
      11       -0.000057232752     0.000011296130     0.000013301514
      12        0.000038562252    -0.000002525561    -0.000009371621
      13       -0.000012159555    -0.000004427844    -0.000058187996
      14       -0.000054954239     0.000035681101    -0.000041873056
      15        0.000000551270     0.000028537686     0.000067537778
      16        0.000017450153     0.000000776201    -0.000042980227
      17       -0.000008122199     0.000009638162     0.000013798828
      18        0.000028988538    -0.000022711977     0.000034000414
      19       -0.000008661580     0.000024969786    -0.000054835338
      20       -0.000029044731    -0.000011444045    -0.000008693739
      21       -0.000012503253     0.000008716458     0.000019577663
      22        0.000024755433    -0.000015957579     0.000026084451

  **** Optimization is complete! (in 5 steps) ****
    Final optimized geometry and variables:
    Molecular point group: c1

    Geometry (in Angstrom), charge = 0, multiplicity = 1:

    C           -1.301017023308     0.686222974372    -0.547877110288
    C           -0.288964301835     0.111088760140     1.533227951472
    C           -2.359334847643     1.275427264233     0.119153507563
    C           -1.344062128018     0.698415557696     2.211369381830
    C            1.783159021019    -1.377092163957     0.050678940342
    C            1.159806124961    -0.213114527310    -1.907558579503
    C            2.855651086854    -1.895488413821    -0.656201852523
    C            2.256264684829    -0.780490587105    -2.535930975510
    C           -0.245155614484     0.084702926711     0.139811873160
    C            0.887771827977    -0.510471237689    -0.573444817743
    C           -2.387324765700     1.282076453369     1.506299501550
    N            3.108169984245    -1.615030644291    -1.936533369390
    O           -3.453608471737     1.874811461515     2.109607426172
    H           -1.320219404085     0.674055426792    -1.626292211513
    H            0.522231330578    -0.305358491176     2.109236090839
    H           -3.175022082639     1.727684400187    -0.423132089404
    H           -1.349498930896     0.709860586141     3.292615134274
    H            1.642678340551    -1.678918142587     1.076628440860
    H            0.541521667233     0.474915902919    -2.461993525554
    H            3.543867516818    -2.572918585267    -0.169933088611
    H            2.463770401255    -0.546676711006    -3.570923367635
    H           -3.350851359488     1.807703926775     3.063795893068

*** Psi4 exiting successfully. Buy a developer a beer!
