                               Psi4 1.1 release

  ==> Input File <==

--------------------------------------------------------------------------

memory 1000 mb

molecule butane {
  symmetry C1
  0 1
  H      5.132   2.255   -9.825
  H      4.348   3.426   -8.790
  H      5.533   2.327   -8.126
  C      4.747   2.434   -8.843
  H      3.246   1.594   -7.554
  H      2.843   1.523   -9.253
  C      3.631   1.416   -8.537
  H      3.665   -0.647   -7.940
  H      4.104   -0.384   -9.610
  C      4.203   -0.012   -8.612
  H      6.088   -0.983   -8.270
  H      5.791   0.381   -7.220
  H      6.230   0.644   -8.890
  C      5.691   0.009   -8.218
  units Angstrom
}

dih_string = "14 10 7 4 30"
set optking fixed_dihedral = $dih_string

optimize('MP2/aug-cc-pvtz')
--------------------------------------------------------------------------

    Molecular point group: c1
  Charge       = 0
  Multiplicity = 1
  Basis Set: AUG-CC-PVTZ
    Blend: AUG-CC-PVTZ
  Basis Set: (AUG-CC-PVTZ AUX)
    Blend: AUG-CC-PVTZ-JKFIT
  @DF-RHF Final Energy:  -157.33964599677981
    Total Energy =                       -157.3396459967798080
  Basis Set: (AUG-CC-PVTZ AUX)
    Blend: AUG-CC-PVTZ-RI
    Molecular point group: c1
  Basis Set: AUG-CC-PVTZ
    Blend: AUG-CC-PVTZ
  Basis Set: (AUG-CC-PVTZ AUX)
    Blend: AUG-CC-PVTZ-JKFIT
  Basis Set: (AUG-CC-PVTZ AUX)
    Blend: AUG-CC-PVTZ-JKFIT
	 Reference Energy          =    -157.3396459967798080 [Eh]
	 Singles Energy            =      -0.0000000000000001 [Eh]
	 Same-Spin Energy          =      -0.1671636393383125 [Eh]
	 Opposite-Spin Energy      =      -0.6415946477844040 [Eh]
	 Correlation Energy        =      -0.8087582871227166 [Eh]
	 Total Energy              =    -158.1484042839025221 [Eh]
	 SCS Total Energy          =    -158.1652807872338542 [Eh]
  @DF-RHF Final Energy:  -157.34684766690148
    Total Energy =                       -157.3468476669014819
  @DF-RHF Final Energy:  -157.34899074336047
    Total Energy =                       -157.3489907433604742
  @DF-RHF Final Energy:  -157.34996483139034
    Total Energy =                       -157.3499648313903378
  @DF-RHF Final Energy:  -157.35032721920430
    Total Energy =                       -157.3503272192043028
  @DF-RHF Final Energy:  -157.35038463254944
    Total Energy =                       -157.3503846325494351
  Charge       = 0
  Multiplicity = 1
  Basis Set: AUG-CC-PVTZ
    Blend: AUG-CC-PVTZ
  Basis Set: (AUG-CC-PVTZ AUX)
    Blend: AUG-CC-PVTZ-JKFIT

    Orbital Energies (a.u.)
    -----------------------

    Doubly Occupied:

       1A    -11.211817     2A    -11.211221     3A    -11.205368
       4A    -11.205364     5A     -1.072047     6A     -0.975683
       7A     -0.878634     8A     -0.769812     9A     -0.633755
      10A     -0.618895    11A     -0.568585    12A     -0.539589
      13A     -0.526363    14A     -0.508065    15A     -0.463715
      16A     -0.459108    17A     -0.448137

  @DF-RHF Final Energy:  -157.35040906227465

   => Energetics <=

    Nuclear Repulsion Energy =            133.8330761164059197
    One-Electron Energy =                -475.7746526567123055
    Two-Electron Energy =                 184.5911674780317639
    DFT Exchange-Correlation Energy =       0.0000000000000000
    Empirical Dispersion Energy =           0.0000000000000000
    PCM Polarization Energy =               0.0000000000000000
    EFP Energy =                            0.0000000000000000
    Total Energy =                       -157.3504090622746503
  Basis Set: (AUG-CC-PVTZ AUX)
    Blend: AUG-CC-PVTZ-RI
    Molecular point group: c1
  Basis Set: AUG-CC-PVTZ
    Blend: AUG-CC-PVTZ
  Basis Set: (AUG-CC-PVTZ AUX)
    Blend: AUG-CC-PVTZ-JKFIT
  Basis Set: (AUG-CC-PVTZ AUX)
    Blend: AUG-CC-PVTZ-JKFIT
	 Reference Energy          =    -157.3504090622746503 [Eh]
	 Singles Energy            =      -0.0000000000000001 [Eh]
	 Same-Spin Energy          =      -0.1659204893518361 [Eh]
	 Opposite-Spin Energy      =      -0.6405171295644225 [Eh]
	 Correlation Energy        =      -0.8064376189162588 [Eh]
	 Total Energy              =    -158.1568466811908991 [Eh]

	 ================> DF-SCS-MP2 Energies <==================
	-----------------------------------------------------------
	 SCS Same-Spin Scale       =       0.3333333333333333 [-]
	 SCS Opposite-Spin Scale   =       1.2000000000000000 [-]
	 SCS Same-Spin Energy      =      -0.0553068297839454 [Eh]
	 SCS Opposite-Spin Energy  =      -0.7686205554773070 [Eh]
	 SCS Correlation Energy    =      -0.8239273852612525 [Eh]
	 SCS Total Energy          =    -158.1743364475358931 [Eh]
	-----------------------------------------------------------

  -Total Gradient:
     Atom            X                  Y                   Z
    ------   -----------------  -----------------  -----------------
       1       -0.000005764148    -0.000019373598     0.000021275922
       2       -0.000010332207    -0.000010515350     0.000002443070
       3       -0.000016472763    -0.000013965702     0.000014774370
       4        0.000847514071     0.000257312693     0.004069686167
       5       -0.000014121497    -0.000041062394    -0.000015375266
       6       -0.000014161570     0.000035180209    -0.000019872084
       7       -0.000587938386    -0.000072221104    -0.007458870273
       8        0.000011208605    -0.000035262755     0.000019978465
       9       -0.000038131915     0.000020960922     0.000012969538
      10       -0.001433054829    -0.000722777190     0.007308235369
      11       -0.000014067900     0.000001999312    -0.000004113841
      12       -0.000015230498     0.000011502995    -0.000023718633
      13       -0.000019317132    -0.000000223471    -0.000017493924
      14        0.001309870170     0.000588445433    -0.003909918882

  **** Optimization is complete! (in 7 steps) ****
    Final optimized geometry and variables:
    Molecular point group: c1

    Geometry (in Angstrom), charge = 0, multiplicity = 1:

    H            0.594569776392     1.421974079896    -1.257236496437
    H           -0.378911202026     2.531269168065    -0.303380364247
    H            0.871062328978     1.572050795485     0.472632944232
    C            0.102681980688     1.556027334753    -0.294838912308
    H           -1.357580141639     0.644552550077     0.948317640278
    H           -1.734838896477     0.539915075542    -0.749441812280
    C           -0.918050418721     0.462077051400    -0.033582330957
    H           -0.987534620201    -1.609080390978     0.546314700396
    H           -0.424913553684    -1.344599951790    -1.081316708755
    C           -0.356439028266    -0.962613312930    -0.061511923998
    H            1.400747116062    -2.129957607804     0.379649132883
    H            1.231974278896    -0.704602546592     1.393510611147
    H            1.756488249162    -0.540141177675    -0.276593965881
    C            1.090252304866    -1.087521431965     0.383847946483

*** Psi4 exiting successfully. Buy a developer a beer!
