                               Psi4 1.1 release

  ==> Input File <==

--------------------------------------------------------------------------

memory 5 Gb

molecule phepyrOH_neutral {
  symmetry C1
  0 1
  C      1.885   -1.036   -0.112
  C      2.878   -1.652   2.002
  C      0.807   -0.463   0.561
  C      1.800   -1.079   2.676
  C      3.862   -2.773   -1.356
  C      5.298   -2.250   0.501
  C      4.965   -3.329   -1.983
  C      6.337   -2.829   -0.209
  C      2.921   -1.631   0.608
  C      4.040   -2.225   -0.090
  C      0.764   -0.484   1.955
  N      6.202   -3.372   -1.440
  O      -0.288   0.076   2.612
  H      1.904   -1.012   -1.199
  H      3.678   -2.112   2.578
  H      0.003   -0.001   -0.006
  H      1.772   -1.098   3.762
  H      2.895   -2.772   -1.850
  H      5.475   -1.833   1.487
  H      4.879   -3.768   -2.972
  H      7.337   -2.875   0.208
  H      -0.445   -0.385   3.452
  units Angstrom
}

dih_string = "3 11 13 22 150"
set optking fixed_dihedral = $dih_string

optimize('MP2/aug-cc-PVTZ')
--------------------------------------------------------------------------

    Molecular point group: c1
  Charge       = 0
  Multiplicity = 1
  Basis Set: AUG-CC-PVTZ
    Blend: AUG-CC-PVTZ
  Basis Set: (AUG-CC-PVTZ AUX)
    Blend: AUG-CC-PVTZ-JKFIT
  @DF-RHF Final Energy:  -551.28439782188252
    Total Energy =                       -551.2843978218825214
  Basis Set: (AUG-CC-PVTZ AUX)
    Blend: AUG-CC-PVTZ-RI
    Molecular point group: c1
  Basis Set: AUG-CC-PVTZ
    Blend: AUG-CC-PVTZ
  Basis Set: (AUG-CC-PVTZ AUX)
    Blend: AUG-CC-PVTZ-JKFIT
  Basis Set: (AUG-CC-PVTZ AUX)
    Blend: AUG-CC-PVTZ-JKFIT
	 Reference Energy          =    -551.2843978218825214 [Eh]
	 Singles Energy            =      -0.0000000000000004 [Eh]
	 Same-Spin Energy          =      -0.6051240200607727 [Eh]
	 Opposite-Spin Energy      =      -1.8308341442252911 [Eh]
	 Correlation Energy        =      -2.4359581642860642 [Eh]
	 Total Energy              =    -553.7203559861685562 [Eh]
	 SCS Total Energy          =    -553.6831068016398376 [Eh]
  @DF-RHF Final Energy:  -551.29041974714835
    Total Energy =                       -551.2904197471483485
  @DF-RHF Final Energy:  -551.29179874393276
    Total Energy =                       -551.2917987439327590
  @DF-RHF Final Energy:  -551.29184801240433
    Total Energy =                       -551.2918480124043299
  @DF-RHF Final Energy:  -551.29194361750035
    Total Energy =                       -551.2919436175003511
  Charge       = 0
  Multiplicity = 1
  Basis Set: AUG-CC-PVTZ
    Blend: AUG-CC-PVTZ
  Basis Set: (AUG-CC-PVTZ AUX)
    Blend: AUG-CC-PVTZ-JKFIT

    Orbital Energies (a.u.)
    -----------------------

    Doubly Occupied:

       1A    -20.598301     2A    -15.560167     3A    -11.311407
       4A    -11.271439     5A    -11.271389     6A    -11.265073
       7A    -11.252655     8A    -11.250779     9A    -11.247427
      10A    -11.243806    11A    -11.238307    12A    -11.235486
      13A    -11.235402    14A     -1.414763    15A     -1.257723
      16A     -1.175725    17A     -1.105677    18A     -1.039197
      19A     -1.030281    20A     -1.013109    21A     -0.881390
      22A     -0.872312    23A     -0.843204    24A     -0.812763
      25A     -0.748670    26A     -0.725880    27A     -0.684450
      28A     -0.662167    29A     -0.655850    30A     -0.636181
      31A     -0.624940    32A     -0.606428    33A     -0.601048
      34A     -0.592986    35A     -0.569292    36A     -0.543396
      37A     -0.534003    38A     -0.524174    39A     -0.499062
      40A     -0.496147    41A     -0.417049    42A     -0.397586
      43A     -0.356148    44A     -0.347940    45A     -0.312472

  @DF-RHF Final Energy:  -551.29198787930284

   => Energetics <=

    Nuclear Repulsion Energy =            697.7424694402408250
    One-Electron Energy =               -2132.1416169442145474
    Two-Electron Energy =                 883.1071596246709987
    DFT Exchange-Correlation Energy =       0.0000000000000000
    Empirical Dispersion Energy =           0.0000000000000000
    PCM Polarization Energy =               0.0000000000000000
    EFP Energy =                            0.0000000000000000
    Total Energy =                       -551.2919878793028374
  Basis Set: (AUG-CC-PVTZ AUX)
    Blend: AUG-CC-PVTZ-RI
    Molecular point group: c1
  Basis Set: AUG-CC-PVTZ
    Blend: AUG-CC-PVTZ
  Basis Set: (AUG-CC-PVTZ AUX)
    Blend: AUG-CC-PVTZ-JKFIT
  Basis Set: (AUG-CC-PVTZ AUX)
    Blend: AUG-CC-PVTZ-JKFIT
	 Reference Energy          =    -551.2919878793028374 [Eh]
	 Singles Energy            =      -0.0000000000000001 [Eh]
	 Same-Spin Energy          =      -0.6039775167786881 [Eh]
	 Opposite-Spin Energy      =      -1.8282083884307705 [Eh]
	 Correlation Energy        =      -2.4321859052094585 [Eh]
	 Total Energy              =    -553.7241737845123453 [Eh]

	 ================> DF-SCS-MP2 Energies <==================
	-----------------------------------------------------------
	 SCS Same-Spin Scale       =       0.3333333333333333 [-]
	 SCS Opposite-Spin Scale   =       1.2000000000000000 [-]
	 SCS Same-Spin Energy      =      -0.2013258389262294 [Eh]
	 SCS Opposite-Spin Energy  =      -2.1938500661169247 [Eh]
	 SCS Correlation Energy    =      -2.3951759050431543 [Eh]
	 SCS Total Energy          =    -553.6871637843460121 [Eh]
	-----------------------------------------------------------

  -Total Gradient:
     Atom            X                  Y                   Z
    ------   -----------------  -----------------  -----------------
       1       -0.000019391293     0.000020106130     0.000024273309
       2       -0.000003742791    -0.000009524973    -0.000005236720
       3       -0.001123110959    -0.001903127448    -0.000180945614
       4       -0.000031018205     0.000002901074    -0.000013591903
       5        0.000031330732     0.000038645596    -0.000022893482
       6       -0.000005169126    -0.000056275974     0.000009436760
       7       -0.000012321095    -0.000162810653     0.000073406914
       8        0.000050309224     0.000165097854    -0.000104717500
       9        0.000135761799    -0.000075990029    -0.000080178514
      10       -0.000177477527     0.000092243178     0.000118394498
      11        0.001245496085     0.002401058786    -0.000061575289
      12       -0.000006309430    -0.000006865399     0.000007331609
      13        0.001779884965     0.001311425435     0.001783843942
      14       -0.000000897936    -0.000014346370     0.000032809162
      15       -0.000018535995     0.000023088839    -0.000031286554
      16        0.000005499489    -0.000017485612     0.000022368154
      17        0.000013204053     0.000003487225    -0.000022675961
      18        0.000034753801    -0.000003317330     0.000002982071
      19        0.000007104775    -0.000019386196    -0.000029093313
      20       -0.000012404372     0.000072778838    -0.000026075111
      21       -0.000029359739    -0.000055273942     0.000054701883
      22       -0.001863606436    -0.001806429034    -0.001551278328

  **** Optimization is complete! (in 6 steps) ****
    Final optimized geometry and variables:
    Molecular point group: c1

    Geometry (in Angstrom), charge = 0, multiplicity = 1:

    C           -1.239327628989     0.777620516052    -0.550560636058
    C           -0.313725876081     0.047473632484     1.530733773257
    C           -2.313505892266     1.339641803639     0.116977720353
    C           -1.379769246867     0.617457669736     2.207572212728
    C            0.750136446710    -1.078474990824    -1.814055357779
    C            2.190166718863    -0.477752168642    -0.031699910586
    C            1.848861863863    -1.633685970643    -2.449830042787
    C            3.229517698062    -1.058680046625    -0.740163782340
    C           -0.222857995531     0.120412632417     0.142233463910
    C            0.905396723362    -0.478311454024    -0.567616765411
    C           -2.382418590378     1.267353140917     1.500668855676
    N            3.080943632944    -1.634267837882    -1.935584728468
    O           -3.452005835404     1.857024920104     2.113945837768
    H           -1.181055261443     0.865591805736    -1.625183195258
    H            0.445495802084    -0.479712851426     2.088966332321
    H           -3.100411455666     1.847430902620    -0.418518030673
    H           -1.433645653549     0.556727796655     3.285204548860
    H           -0.223498711252    -1.136560151961    -2.276647348600
    H            2.386798689437    -0.005821537581     0.919102736044
    H            1.733687547169    -2.105623002509    -3.415688117475
    H            4.230367988439    -1.057080510323    -0.331352241681
    H           -3.649378085670     1.381255734216     2.925742435570

*** Psi4 exiting successfully. Buy a developer a beer!
