                              Psi4 1.0.0 Driver

  ==> Input File <==

--------------------------------------------------------------------------

memory 1000 mb

molecule butane {
  symmetry C1
  0 1
  H      1.604   0.760   -8.260
  H      1.745   2.388   -8.880
  H      2.043   1.024   -9.930
  C      2.142   1.395   -8.932
  H      4.169   2.051   -9.210
  H      3.731   1.788   -7.539
  C      3.631   1.416   -8.537
  H      3.575   -0.615   -9.234
  H      5.189   0.020   -9.026
  C      4.203   -0.012   -8.612
  H      4.657   -1.610   -7.250
  H      3.274   -0.650   -6.783
  H      4.888   -0.015   -6.576
  C      4.260   -0.618   -7.198
  units Angstrom
}

dih_string = "4 7 10 14 260"
set optking fixed_dihedral = $dih_string

optimize('B3LYP/cc-PVDZ')
--------------------------------------------------------------------------

    Molecular point group: c1
  Charge       = 0
  Multiplicity = 1
  Basis Set: CC-PVDZ
   => B3LYP Composite Functional <=
  Basis Set:
  @DF-RKS Final Energy:  -158.44496102193858
    Total Energy =                       -158.4449610219385818
    Molecular point group: c1
  Basis Set: CC-PVDZ
  Basis Set:
   => B3LYP Composite Functional <=
  Basis Set: CC-PVDZ
   => B3LYP Composite Functional <=
  Basis Set:
  @DF-RKS Final Energy:  -158.45082169953832
    Total Energy =                       -158.4508216995383236
  Basis Set: CC-PVDZ
  Basis Set:
   => B3LYP Composite Functional <=
  Basis Set: CC-PVDZ
   => B3LYP Composite Functional <=
  Basis Set:
  @DF-RKS Final Energy:  -158.45355638028053
    Total Energy =                       -158.4535563802805314
  Basis Set: CC-PVDZ
  Basis Set:
  @DF-RKS Final Energy:  -158.45441238114068
    Total Energy =                       -158.4544123811406848
  @DF-RKS Final Energy:  -158.45463566081241
    Total Energy =                       -158.4546356608124142
   => B3LYP Composite Functional <=
  Basis Set:
  @DF-RKS Final Energy:  -158.45466614187868
    Total Energy =                       -158.4546661418786755
  Basis Set: CC-PVDZ
  Basis Set:
   => B3LYP Composite Functional <=
  Basis Set: CC-PVDZ
   => B3LYP Composite Functional <=
  Basis Set:
  @DF-RKS Final Energy:  -158.45466414208801
    Total Energy =                       -158.4546641420880064
  Basis Set: CC-PVDZ
  Basis Set:
   => B3LYP Composite Functional <=
  Charge       = 0
  Multiplicity = 1
  Basis Set: CC-PVDZ
   => B3LYP Composite Functional <=
  Basis Set:

    Orbital Energies (a.u.)
    -----------------------

    Doubly Occupied:

       1A    -10.180045     2A    -10.179884     3A    -10.176079
       4A    -10.176075     5A     -0.788998     6A     -0.718739
       7A     -0.630747     8A     -0.568799     9A     -0.453561
      10A     -0.441751    11A     -0.416790    12A     -0.387496
      13A     -0.367916    14A     -0.360148    15A     -0.327197
      16A     -0.319655    17A     -0.314099

  @DF-RKS Final Energy:  -158.45466370299184

   => Energetics <=

    Nuclear Repulsion Energy =            130.6557572387901871
    One-Electron Energy =                -469.8076740143540633
    Two-Electron Energy =                 201.2793886087055171
    DFT Exchange-Correlation Energy =     -20.5821355361334462
    Empirical Dispersion Energy =           0.0000000000000000
    PCM Polarization Energy =               0.0000000000000000
    EFP Energy =                            0.0000000000000000
    Total Energy =                       -158.4546637029918372
    Molecular point group: c1
  Basis Set: CC-PVDZ
  Basis Set:
   => B3LYP Composite Functional <=

  -Total Gradient:
     Atom            X                  Y                   Z
    ------   -----------------  -----------------  -----------------
       1       -0.000003206175     0.000000186766    -0.000002446720
       2       -0.000002198858     0.000004866114     0.000000576687
       3        0.000000827939     0.000005086729    -0.000005008611
       4        0.000676468381     0.000242666020    -0.002356630587
       5        0.000000589257    -0.000014453947     0.000010591574
       6       -0.000018193430    -0.000015025168     0.000002627560
       7       -0.000059821940     0.000113884231     0.003377021289
       8       -0.000013167578     0.000001241466     0.000019865142
       9       -0.000016153047     0.000007567839     0.000000475644
      10       -0.002783728888    -0.001358671766    -0.001350121347
      11        0.000001710176    -0.000005256137    -0.000000343127
      12        0.000001705104    -0.000000801167     0.000003440805
      13        0.000006826907    -0.000001762527    -0.000000998290
      14        0.002220716423     0.001025887770     0.000292130749

  **** Optimization is complete! (in 8 steps) ****
    Final optimized geometry and variables:
    Molecular point group: c1

    Geometry (in Angstrom), charge = 0, multiplicity = 1:

    H           -2.042641816672     0.219715609701    -0.018217392649
    H           -1.869369430730     1.865698709948    -0.669879658811
    H           -1.554550891158     0.456681278478    -1.712027147925
    C           -1.435468851120     0.852321849182    -0.689086500873
    H            0.595496449343     1.502701040367    -0.978425413139
    H            0.148162372952     1.339342938490     0.716649868627
    C            0.039109253396     0.860621211476    -0.273178532435
    H            0.115094705149    -1.224095431778    -0.904279141091
    H            1.699940375582    -0.497813300170    -0.657594790068
    C            0.679367264488    -0.546089231142    -0.238898570013
    H            1.192545157335    -2.161996515569     1.152263972656
    H           -0.232528004049    -1.215723881262     1.639793890631
    H            1.396382632323    -0.525929460070     1.824758220426
    C            0.763307642255    -1.146578152568     1.168153771812

*** Psi4 exiting successfully. Buy a developer a beer!
