                               Psi4 1.1 release

  ==> Input File <==

--------------------------------------------------------------------------

memory 5 Gb

molecule phepyrOH_neutral {
  symmetry C1
  0 1
  C      1.885   -1.036   -0.112
  C      2.878   -1.652   2.002
  C      0.807   -0.463   0.561
  C      1.800   -1.079   2.676
  C      3.862   -2.773   -1.356
  C      5.298   -2.250   0.501
  C      4.965   -3.329   -1.983
  C      6.337   -2.829   -0.209
  C      2.921   -1.631   0.608
  C      4.040   -2.225   -0.090
  C      0.764   -0.484   1.955
  N      6.202   -3.372   -1.440
  O      -0.288   0.076   2.612
  H      1.904   -1.012   -1.199
  H      3.678   -2.112   2.578
  H      0.003   -0.001   -0.006
  H      1.772   -1.098   3.762
  H      2.895   -2.772   -1.850
  H      5.475   -1.833   1.487
  H      4.879   -3.768   -2.972
  H      7.337   -2.875   0.208
  H      -1.070   -0.495   2.543
  units Angstrom
}

dih_string = "3 11 13 22 75"
set optking fixed_dihedral = $dih_string

optimize('MP2/aug-cc-PVTZ')
--------------------------------------------------------------------------

    Molecular point group: c1
  Charge       = 0
  Multiplicity = 1
  Basis Set: AUG-CC-PVTZ
    Blend: AUG-CC-PVTZ
  Basis Set: (AUG-CC-PVTZ AUX)
    Blend: AUG-CC-PVTZ-JKFIT
  @DF-RHF Final Energy:  -551.28182710234819
    Total Energy =                       -551.2818271023481884
  Basis Set: (AUG-CC-PVTZ AUX)
    Blend: AUG-CC-PVTZ-RI
    Molecular point group: c1
  Basis Set: AUG-CC-PVTZ
    Blend: AUG-CC-PVTZ
  Basis Set: (AUG-CC-PVTZ AUX)
    Blend: AUG-CC-PVTZ-JKFIT
  Basis Set: (AUG-CC-PVTZ AUX)
    Blend: AUG-CC-PVTZ-JKFIT
	 Reference Energy          =    -551.2818271023481884 [Eh]
	 Singles Energy            =      -0.0000000000000005 [Eh]
	 Same-Spin Energy          =      -0.6047010357635709 [Eh]
	 Opposite-Spin Energy      =      -1.8303483334515032 [Eh]
	 Correlation Energy        =      -2.4350493692150743 [Eh]
	 Total Energy              =    -553.7168764715632960 [Eh]
	 SCS Total Energy          =    -553.6798121144112201 [Eh]
  @DF-RHF Final Energy:  -551.28763049858071
    Total Energy =                       -551.2876304985807110
  @DF-RHF Final Energy:  -551.28887107940329
    Total Energy =                       -551.2888710794032932
  @DF-RHF Final Energy:  -551.28887910229037
    Total Energy =                       -551.2888791022903661
  @DF-RHF Final Energy:  -551.28898687612866
    Total Energy =                       -551.2889868761286607
  @DF-RHF Final Energy:  -551.28908446965670
    Total Energy =                       -551.2890844696567001
  Charge       = 0
  Multiplicity = 1
  Basis Set: AUG-CC-PVTZ
    Blend: AUG-CC-PVTZ
  Basis Set: (AUG-CC-PVTZ AUX)
    Blend: AUG-CC-PVTZ-JKFIT

    Orbital Energies (a.u.)
    -----------------------

    Doubly Occupied:

       1A    -20.588805     2A    -15.561726     3A    -11.305157
       4A    -11.272665     5A    -11.272558     6A    -11.266235
       7A    -11.251963     8A    -11.250425     9A    -11.249707
      10A    -11.242943    11A    -11.241127    12A    -11.237140
      13A    -11.236972    14A     -1.402696    15A     -1.259086
      16A     -1.176008    17A     -1.106343    18A     -1.039383
      19A     -1.030619    20A     -1.012904    21A     -0.879802
      22A     -0.872169    23A     -0.840789    24A     -0.812399
      25A     -0.745343    26A     -0.724202    27A     -0.683463
      28A     -0.662819    29A     -0.650894    30A     -0.644652
      31A     -0.635017    32A     -0.606479    33A     -0.597234
      34A     -0.594176    35A     -0.549615    36A     -0.542893
      37A     -0.533315    38A     -0.515725    39A     -0.509833
      40A     -0.483219    41A     -0.418351    42A     -0.401519
      43A     -0.354795    44A     -0.349105    45A     -0.319774

  @DF-RHF Final Energy:  -551.28910787216626

   => Energetics <=

    Nuclear Repulsion Energy =            697.3485630853637076
    One-Electron Energy =               -2131.4112537957507811
    Two-Electron Energy =                 882.7735828382207046
    DFT Exchange-Correlation Energy =       0.0000000000000000
    Empirical Dispersion Energy =           0.0000000000000000
    PCM Polarization Energy =               0.0000000000000000
    EFP Energy =                            0.0000000000000000
    Total Energy =                       -551.2891078721662552
  Basis Set: (AUG-CC-PVTZ AUX)
    Blend: AUG-CC-PVTZ-RI
    Molecular point group: c1
  Basis Set: AUG-CC-PVTZ
    Blend: AUG-CC-PVTZ
  Basis Set: (AUG-CC-PVTZ AUX)
    Blend: AUG-CC-PVTZ-JKFIT
  Basis Set: (AUG-CC-PVTZ AUX)
    Blend: AUG-CC-PVTZ-JKFIT
	 Reference Energy          =    -551.2891078721662552 [Eh]
	 Singles Energy            =      -0.0000000000000001 [Eh]
	 Same-Spin Energy          =      -0.6035927015707400 [Eh]
	 Opposite-Spin Energy      =      -1.8280279694559165 [Eh]
	 Correlation Energy        =      -2.4316206710266566 [Eh]
	 Total Energy              =    -553.7207285431928767 [Eh]

	 ================> DF-SCS-MP2 Energies <==================
	-----------------------------------------------------------
	 SCS Same-Spin Scale       =       0.3333333333333333 [-]
	 SCS Opposite-Spin Scale   =       1.2000000000000000 [-]
	 SCS Same-Spin Energy      =      -0.2011975671902466 [Eh]
	 SCS Opposite-Spin Energy  =      -2.1936335633470998 [Eh]
	 SCS Correlation Energy    =      -2.3948311305373466 [Eh]
	 SCS Total Energy          =    -553.6839390027035961 [Eh]
	-----------------------------------------------------------

  -Total Gradient:
     Atom            X                  Y                   Z
    ------   -----------------  -----------------  -----------------
       1       -0.000026794295    -0.000005509555     0.000001233039
       2       -0.000011290563     0.000000452896     0.000019628903
       3        0.000737996238     0.001104358615     0.000124879222
       4        0.000007558032     0.000005359162     0.000004873406
       5        0.000020269325     0.000027186546    -0.000016760546
       6        0.000001216864    -0.000042429307     0.000012094532
       7       -0.000034949913    -0.000089008768     0.000044986101
       8        0.000020038014     0.000121079308    -0.000043242527
       9        0.000051437599    -0.000013260727    -0.000038486411
      10       -0.000058148215     0.000026141184     0.000026877349
      11       -0.001046720415    -0.001876635421     0.000139741973
      12        0.000013472594    -0.000019789947    -0.000004662447
      13       -0.000082509901     0.001715151685    -0.001676052203
      14        0.000005021780    -0.000003309361     0.000004961931
      15       -0.000002450769    -0.000000577283    -0.000006824953
      16        0.000005061845     0.000002797763    -0.000001931558
      17        0.000000466205     0.000000132008    -0.000002008334
      18        0.000008979801    -0.000001981880    -0.000005098501
      19        0.000009277880    -0.000006780037    -0.000004110051
      20        0.000001172600     0.000034617804    -0.000020919383
      21       -0.000005088383    -0.000035030604     0.000025172483
      22        0.000385983669    -0.000942964077     0.001415647993

  **** Optimization is complete! (in 7 steps) ****
    Final optimized geometry and variables:
    Molecular point group: c1

    Geometry (in Angstrom), charge = 0, multiplicity = 1:

    C           -1.243317189365     0.763486632406    -0.559434942492
    C           -0.312726899835     0.054746548049     1.530554541451
    C           -2.315249994319     1.333421326458     0.107989935990
    C           -1.389046886068     0.611232072039     2.202419555349
    C            0.755316846425    -1.090063264999    -1.806499616489
    C            2.193815674746    -0.455902520443    -0.033532832075
    C            1.858485769651    -1.638733662992    -2.440315563915
    C            3.237684923831    -1.031122768733    -0.740163478930
    C           -0.225697217931     0.116485707994     0.140525877156
    C            0.908112115742    -0.476644265916    -0.566411582888
    C           -2.397713793930     1.241827528802     1.490278481072
    N            3.091838944215    -1.619808990853    -1.929568044363
    O           -3.424516260456     1.853560561503     2.178659461405
    H           -1.175757123427     0.856358972853    -1.633224954766
    H            0.454355509618    -0.459678772825     2.090125182642
    H           -3.085571473375     1.862185755598    -0.432537330008
    H           -1.462724154625     0.558379367851     3.277510351170
    H           -0.219334569926    -1.163130015848    -2.265008494447
    H            2.387350851951     0.026969703010     0.912400461794
    H            1.746344202954    -2.121863648505    -3.400956083614
    H            4.239949180925    -1.013689217517    -0.335264395204
    H           -4.230445769805     1.345284475966     2.052365976532

*** Psi4 exiting successfully. Buy a developer a beer!
