                               Psi4 1.1 release

  ==> Input File <==

--------------------------------------------------------------------------

memory 1000 mb

molecule butane {
  symmetry C1
  0 1
  H      1.604   0.760   -8.260
  H      1.745   2.388   -8.880
  H      2.043   1.024   -9.930
  C      2.142   1.395   -8.932
  H      4.169   2.051   -9.210
  H      3.731   1.788   -7.539
  C      3.631   1.416   -8.537
  H      3.665   -0.647   -7.940
  H      4.104   -0.384   -9.610
  C      4.203   -0.012   -8.612
  H      6.196   0.771   -8.773
  H      6.131   -0.941   -8.435
  H      5.781   0.212   -7.171
  C      5.691   0.009   -8.218
  units Angstrom
}

dih_string = "7 10 14 13 70"
set optking fixed_dihedral = $dih_string

optimize('MP2/aug-cc-pvtz')
--------------------------------------------------------------------------

    Molecular point group: c1
  Charge       = 0
  Multiplicity = 1
  Basis Set: AUG-CC-PVTZ
    Blend: AUG-CC-PVTZ
  Basis Set: (AUG-CC-PVTZ AUX)
    Blend: AUG-CC-PVTZ-JKFIT
  @DF-RHF Final Energy:  -157.35242420657696
    Total Energy =                       -157.3524242065769556
  Basis Set: (AUG-CC-PVTZ AUX)
    Blend: AUG-CC-PVTZ-RI
    Molecular point group: c1
  Basis Set: AUG-CC-PVTZ
    Blend: AUG-CC-PVTZ
  Basis Set: (AUG-CC-PVTZ AUX)
    Blend: AUG-CC-PVTZ-JKFIT
  Basis Set: (AUG-CC-PVTZ AUX)
    Blend: AUG-CC-PVTZ-JKFIT
	 Reference Energy          =    -157.3524242065769556 [Eh]
	 Singles Energy            =      -0.0000000000000001 [Eh]
	 Same-Spin Energy          =      -0.1653758325424675 [Eh]
	 Opposite-Spin Energy      =      -0.6387025094211219 [Eh]
	 Correlation Energy        =      -0.8040783419635896 [Eh]
	 Total Energy              =    -158.1565025485405442 [Eh]
	 SCS Total Energy          =    -158.1739924953964476 [Eh]
  @DF-RHF Final Energy:  -157.35507785039184
    Total Energy =                       -157.3550778503918366
  @DF-RHF Final Energy:  -157.35587228778292
    Total Energy =                       -157.3558722877829155
  @DF-RHF Final Energy:  -157.35610173556580
    Total Energy =                       -157.3561017355658009
  Charge       = 0
  Multiplicity = 1
  Basis Set: AUG-CC-PVTZ
    Blend: AUG-CC-PVTZ
  Basis Set: (AUG-CC-PVTZ AUX)
    Blend: AUG-CC-PVTZ-JKFIT

    Orbital Energies (a.u.)
    -----------------------

    Doubly Occupied:

       1A    -11.211375     2A    -11.210735     3A    -11.206030
       4A    -11.206022     5A     -1.074356     6A     -0.982199
       7A     -0.860999     8A     -0.787825     9A     -0.641168
      10A     -0.585456    11A     -0.577167    12A     -0.568424
      13A     -0.514230    14A     -0.494765    15A     -0.469930
      16A     -0.461237    17A     -0.456254

  @DF-RHF Final Energy:  -157.35609615643043

   => Energetics <=

    Nuclear Repulsion Energy =            131.5374962503108236
    One-Electron Energy =                -471.1708422642168443
    Two-Electron Energy =                 182.2772498574755957
    DFT Exchange-Correlation Energy =       0.0000000000000000
    Empirical Dispersion Energy =           0.0000000000000000
    PCM Polarization Energy =               0.0000000000000000
    EFP Energy =                            0.0000000000000000
    Total Energy =                       -157.3560961564304250
  Basis Set: (AUG-CC-PVTZ AUX)
    Blend: AUG-CC-PVTZ-RI
    Molecular point group: c1
  Basis Set: AUG-CC-PVTZ
    Blend: AUG-CC-PVTZ
  Basis Set: (AUG-CC-PVTZ AUX)
    Blend: AUG-CC-PVTZ-JKFIT
  Basis Set: (AUG-CC-PVTZ AUX)
    Blend: AUG-CC-PVTZ-JKFIT
	 Reference Energy          =    -157.3560961564304250 [Eh]
	 Singles Energy            =      -0.0000000000000000 [Eh]
	 Same-Spin Energy          =      -0.1654512223826708 [Eh]
	 Opposite-Spin Energy      =      -0.6391917259214842 [Eh]
	 Correlation Energy        =      -0.8046429483041551 [Eh]
	 Total Energy              =    -158.1607391047345743 [Eh]

	 ================> DF-SCS-MP2 Energies <==================
	-----------------------------------------------------------
	 SCS Same-Spin Scale       =       0.3333333333333333 [-]
	 SCS Opposite-Spin Scale   =       1.2000000000000000 [-]
	 SCS Same-Spin Energy      =      -0.0551504074608903 [Eh]
	 SCS Opposite-Spin Energy  =      -0.7670300711057810 [Eh]
	 SCS Correlation Energy    =      -0.8221804785666713 [Eh]
	 SCS Total Energy          =    -158.1782766349971041 [Eh]
	-----------------------------------------------------------

  -Total Gradient:
     Atom            X                  Y                   Z
    ------   -----------------  -----------------  -----------------
       1       -0.000032221956    -0.000031624096     0.000034427032
       2       -0.000017408235     0.000050326178     0.000003098800
       3       -0.000021189352    -0.000019573612    -0.000059519599
       4        0.000124672073    -0.000030662025     0.000017252038
       5       -0.000008371313    -0.000014585651    -0.000014331052
       6       -0.000002465329    -0.000004987069     0.000046618319
       7        0.000307653778     0.000206097748    -0.001096791609
       8       -0.000020956434    -0.000002913024     0.000053239602
       9        0.000010301226     0.000001206404    -0.000005524742
      10       -0.000410122781    -0.000648168283     0.001529429714
      11        0.000044415414     0.000049569143    -0.000031562953
      12        0.000012124144    -0.000033551281    -0.000010942364
      13       -0.000078046434    -0.001543990974     0.000342551459
      14        0.000091615198     0.002022856539    -0.000807944644

  **** Optimization is complete! (in 5 steps) ****
    Final optimized geometry and variables:
    Molecular point group: c1

    Geometry (in Angstrom), charge = 0, multiplicity = 1:

    H           -2.346183664865     0.057324639463     0.329498428125
    H           -2.204474571878     1.690679182489    -0.310728864329
    H           -1.919002463687     0.304993096472    -1.357760087172
    C           -1.778244725494     0.690863861079    -0.349527914857
    H            0.241858039360     1.353967721392    -0.649468409970
    H           -0.182119060408     1.099855485657     1.027658003738
    C           -0.307797431474     0.693344245076     0.022606075654
    H           -0.250925474992    -1.364902149207     0.611711821999
    H            0.205461515239    -1.076717006132    -1.050867251017
    C            0.310769431710    -0.690098591774    -0.035848335924
    H            2.327336206131     0.069445078337    -0.184071451961
    H            2.241289293172    -1.654479514333     0.159140257412
    H            1.887021703291    -0.495735755813     1.427048211657
    C            1.775250761276    -0.692801926770     0.362588711317

*** Psi4 exiting successfully. Buy a developer a beer!
