                               Psi4 1.1 release

  ==> Input File <==

--------------------------------------------------------------------------

memory 1000 mb

molecule butane {
  symmetry C1
  0 1
  H      1.604   0.760   -8.260
  H      1.745   2.388   -8.880
  H      2.043   1.024   -9.930
  C      2.142   1.395   -8.932
  H      4.169   2.051   -9.210
  H      3.731   1.788   -7.539
  C      3.631   1.416   -8.537
  H      3.665   -0.647   -7.940
  H      4.104   -0.384   -9.610
  C      4.203   -0.012   -8.612
  H      6.088   -0.983   -8.270
  H      5.791   0.381   -7.220
  H      6.230   0.644   -8.890
  C      5.691   0.009   -8.218
  units Angstrom
}

dih_string = "7 10 14 13 300"
set optking fixed_dihedral = $dih_string

optimize('MP2/aug-cc-pvtz')
--------------------------------------------------------------------------

    Molecular point group: c1
  Charge       = 0
  Multiplicity = 1
  Basis Set: AUG-CC-PVTZ
    Blend: AUG-CC-PVTZ
  Basis Set: (AUG-CC-PVTZ AUX)
    Blend: AUG-CC-PVTZ-JKFIT
  @DF-RHF Final Energy:  -157.35281648366043
    Total Energy =                       -157.3528164836604333
  Basis Set: (AUG-CC-PVTZ AUX)
    Blend: AUG-CC-PVTZ-RI
    Molecular point group: c1
  Basis Set: AUG-CC-PVTZ
    Blend: AUG-CC-PVTZ
  Basis Set: (AUG-CC-PVTZ AUX)
    Blend: AUG-CC-PVTZ-JKFIT
  Basis Set: (AUG-CC-PVTZ AUX)
    Blend: AUG-CC-PVTZ-JKFIT
	 Reference Energy          =    -157.3528164836604333 [Eh]
	 Singles Energy            =      -0.0000000000000000 [Eh]
	 Same-Spin Energy          =      -0.1653647387125347 [Eh]
	 Opposite-Spin Energy      =      -0.6386381326758802 [Eh]
	 Correlation Energy        =      -0.8040028713884149 [Eh]
	 Total Energy              =    -158.1568193550488388 [Eh]
	 SCS Total Energy          =    -158.1743038224423401 [Eh]
  @DF-RHF Final Energy:  -157.35544300853428
    Total Energy =                       -157.3554430085342801
  @DF-RHF Final Energy:  -157.35621599420227
    Total Energy =                       -157.3562159942022731
  @DF-RHF Final Energy:  -157.35641648072448
    Total Energy =                       -157.3564164807244765
  Charge       = 0
  Multiplicity = 1
  Basis Set: AUG-CC-PVTZ
    Blend: AUG-CC-PVTZ
  Basis Set: (AUG-CC-PVTZ AUX)
    Blend: AUG-CC-PVTZ-JKFIT

    Orbital Energies (a.u.)
    -----------------------

    Doubly Occupied:

       1A    -11.211380     2A    -11.210739     3A    -11.206064
       4A    -11.206057     5A     -1.074534     6A     -0.982303
       7A     -0.860895     8A     -0.787861     9A     -0.641288
      10A     -0.585813    11A     -0.577253    12A     -0.568070
      13A     -0.514564    14A     -0.494223    15A     -0.469825
      16A     -0.461419    17A     -0.456774

  @DF-RHF Final Energy:  -157.35640887585501

   => Energetics <=

    Nuclear Repulsion Energy =            131.5643932141481116
    One-Electron Energy =                -471.2234831417549685
    Two-Electron Energy =                 182.3026810517518186
    DFT Exchange-Correlation Energy =       0.0000000000000000
    Empirical Dispersion Energy =           0.0000000000000000
    PCM Polarization Energy =               0.0000000000000000
    EFP Energy =                            0.0000000000000000
    Total Energy =                       -157.3564088758550099
  Basis Set: (AUG-CC-PVTZ AUX)
    Blend: AUG-CC-PVTZ-RI
    Molecular point group: c1
  Basis Set: AUG-CC-PVTZ
    Blend: AUG-CC-PVTZ
  Basis Set: (AUG-CC-PVTZ AUX)
    Blend: AUG-CC-PVTZ-JKFIT
  Basis Set: (AUG-CC-PVTZ AUX)
    Blend: AUG-CC-PVTZ-JKFIT
	 Reference Energy          =    -157.3564088758550099 [Eh]
	 Singles Energy            =      -0.0000000000000000 [Eh]
	 Same-Spin Energy          =      -0.1654584183725351 [Eh]
	 Opposite-Spin Energy      =      -0.6391449267264523 [Eh]
	 Correlation Energy        =      -0.8046033450989875 [Eh]
	 Total Energy              =    -158.1610122209540066 [Eh]

	 ================> DF-SCS-MP2 Energies <==================
	-----------------------------------------------------------
	 SCS Same-Spin Scale       =       0.3333333333333333 [-]
	 SCS Opposite-Spin Scale   =       1.2000000000000000 [-]
	 SCS Same-Spin Energy      =      -0.0551528061241784 [Eh]
	 SCS Opposite-Spin Energy  =      -0.7669739120717427 [Eh]
	 SCS Correlation Energy    =      -0.8221267181959211 [Eh]
	 SCS Total Energy          =    -158.1785355940509419 [Eh]
	-----------------------------------------------------------

  -Total Gradient:
     Atom            X                  Y                   Z
    ------   -----------------  -----------------  -----------------
       1       -0.000034713723    -0.000025708564     0.000025315057
       2       -0.000013051192     0.000040870443     0.000002484310
       3       -0.000015935145    -0.000015662593    -0.000047354668
       4        0.000115828226    -0.000037363151     0.000026916075
       5        0.000007384049    -0.000006614825    -0.000024007043
       6       -0.000003604840    -0.000012353486     0.000021878162
       7       -0.000008372066     0.000018769476     0.000048665825
       8       -0.000012228075     0.000009634549     0.000027625522
       9        0.000006215279     0.000007322018    -0.000020100600
      10        0.000013391982    -0.000027435960    -0.000079928576
      11        0.000016366582    -0.000045979478    -0.000009623409
      12        0.000014118689     0.000007875893     0.000044386154
      13        0.000042686639    -0.000022915449    -0.000062323422
      14       -0.000128086405     0.000109561124     0.000046066614

  **** Optimization is complete! (in 5 steps) ****
    Final optimized geometry and variables:
    Molecular point group: c1

    Geometry (in Angstrom), charge = 0, multiplicity = 1:

    H           -2.349081191814     0.052174743602     0.309561075759
    H           -2.202200282273     1.692523865341    -0.311233545089
    H           -1.906730655543     0.318654356011    -1.370894467479
    C           -1.775244993084     0.693350609454    -0.357287865782
    H            0.248093756087     1.356880690940    -0.634031277268
    H           -0.191816284556     1.091998251557     1.037214567500
    C           -0.308346054899     0.692105100809     0.028656987738
    H           -0.247884256009    -1.356360121914     0.635241744391
    H            0.191089205308    -1.092729512349    -1.036455882802
    C            0.308236935552    -0.692117999144    -0.028257906120
    H            2.200813817154    -1.693330732613     0.315619158200
    H            1.907993734593    -0.313692740629     1.368523167692
    H            2.349779513765    -0.056724613445    -0.313816510444
    C            1.775349295304    -0.693286831618     0.356911625640

*** Psi4 exiting successfully. Buy a developer a beer!
