                               Psi4 1.1 release

  ==> Input File <==

--------------------------------------------------------------------------

memory 5 Gb

molecule phepyrFOH_neutral {
  symmetry C1
  0 1
  C      1.885   -1.036   -0.112
  C      0.807   -0.463   0.561
  C      3.825   -3.269   -0.988
  C      5.328   -1.753   0.119
  C      1.800   -1.079   2.676
  C      4.927   -3.802   -1.637
  C      6.363   -2.354   -0.579
  C      2.921   -1.631   0.608
  C      4.038   -2.225   -0.095
  C      0.764   -0.484   1.955
  C      2.878   -1.652   2.002
  N      6.195   -3.370   -1.455
  O      -0.289   0.076   2.612
  F      3.866   -2.220   2.709
  H      1.904   -1.012   -1.199
  H      0.002   -0.002   -0.006
  H      2.833   -3.663   -1.183
  H      5.532   -0.940   0.809
  H      1.772   -1.099   3.762
  H      4.814   -4.616   -2.345
  H      7.387   -2.023   -0.446
  H      -0.109   1.011   2.800
  units Angstrom
}

dih_string = "2 10 13 22 270"
set optking fixed_dihedral = $dih_string

optimize('MP2/aug-cc-PVTZ')
--------------------------------------------------------------------------

    Molecular point group: c1
  Charge       = 0
  Multiplicity = 1
  Basis Set: AUG-CC-PVTZ
    Blend: AUG-CC-PVTZ
  Basis Set: (AUG-CC-PVTZ AUX)
    Blend: AUG-CC-PVTZ-JKFIT
  @DF-RHF Final Energy:  -650.16966309564225
    Total Energy =                       -650.1696630956423633
  Basis Set: (AUG-CC-PVTZ AUX)
    Blend: AUG-CC-PVTZ-RI
    Molecular point group: c1
  Basis Set: AUG-CC-PVTZ
    Blend: AUG-CC-PVTZ
  Basis Set: (AUG-CC-PVTZ AUX)
    Blend: AUG-CC-PVTZ-JKFIT
  Basis Set: (AUG-CC-PVTZ AUX)
    Blend: AUG-CC-PVTZ-JKFIT
	 Reference Energy          =    -650.1696630956422496 [Eh]
	 Singles Energy            =      -0.0000000000000002 [Eh]
	 Same-Spin Energy          =      -0.6770281796819040 [Eh]
	 Opposite-Spin Energy      =      -2.0187293804864108 [Eh]
	 Correlation Energy        =      -2.6957575601683148 [Eh]
	 Total Energy              =    -652.8654206558105670 [Eh]
	 SCS Total Energy          =    -652.8178144121199011 [Eh]
  @DF-RHF Final Energy:  -650.17558050009893
    Total Energy =                       -650.1755805000989312
  @DF-RHF Final Energy:  -650.17699324821433
    Total Energy =                       -650.1769932482143304
  @DF-RHF Final Energy:  -650.17702344451754
    Total Energy =                       -650.1770234445175447
  @DF-RHF Final Energy:  -650.17694769893615
    Total Energy =                       -650.1769476989361465
  @DF-RHF Final Energy:  -650.17697223239566
    Total Energy =                       -650.1769722323956557
  @DF-RHF Final Energy:  -650.17704457338425
    Total Energy =                       -650.1770445733843644
  @DF-RHF Final Energy:  -650.17708605011035
    Total Energy =                       -650.1770860501103471
  @DF-RHF Final Energy:  -650.17704190817233
    Total Energy =                       -650.1770419081722139
  @DF-RHF Final Energy:  -650.17690824129545
    Total Energy =                       -650.1769082412954504
  @DF-RHF Final Energy:  -650.17698278225225
    Total Energy =                       -650.1769827822522529
  Charge       = 0
  Multiplicity = 1
  Basis Set: AUG-CC-PVTZ
    Blend: AUG-CC-PVTZ
  Basis Set: (AUG-CC-PVTZ AUX)
    Blend: AUG-CC-PVTZ-JKFIT

    Orbital Energies (a.u.)
    -----------------------

    Doubly Occupied:

       1A    -26.322014     2A    -20.596515     3A    -15.563714
       4A    -11.345079     5A    -11.318847     6A    -11.273361
       7A    -11.272280     8A    -11.270463     9A    -11.263191
      10A    -11.261360    11A    -11.250183    12A    -11.246761
      13A    -11.240194    14A    -11.238172    15A     -1.641133
      16A     -1.411141    17A     -1.260448    18A     -1.186750
      19A     -1.113714    20A     -1.044673    21A     -1.035449
      22A     -1.024420    23A     -0.890804    24A     -0.879778
      25A     -0.852345    26A     -0.830312    27A     -0.771563
      28A     -0.733657    29A     -0.730808    30A     -0.708843
      31A     -0.699841    32A     -0.667195    33A     -0.663654
      34A     -0.651049    35A     -0.632021    36A     -0.628351
      37A     -0.605723    38A     -0.596995    39A     -0.561614
      40A     -0.547276    41A     -0.543346    42A     -0.523377
      43A     -0.509244    44A     -0.500904    45A     -0.419535
      46A     -0.406101    47A     -0.360364    48A     -0.349372
      49A     -0.330165

  @DF-RHF Final Energy:  -650.17697717078693

   => Energetics <=

    Nuclear Repulsion Energy =            813.7106641617889409
    One-Electron Energy =               -2502.2270766588894730
    Two-Electron Energy =                1038.3394353263136054
    DFT Exchange-Correlation Energy =       0.0000000000000000
    Empirical Dispersion Energy =           0.0000000000000000
    PCM Polarization Energy =               0.0000000000000000
    EFP Energy =                            0.0000000000000000
    Total Energy =                       -650.1769771707870404
  Basis Set: (AUG-CC-PVTZ AUX)
    Blend: AUG-CC-PVTZ-RI
    Molecular point group: c1
  Basis Set: AUG-CC-PVTZ
    Blend: AUG-CC-PVTZ
  Basis Set: (AUG-CC-PVTZ AUX)
    Blend: AUG-CC-PVTZ-JKFIT
  Basis Set: (AUG-CC-PVTZ AUX)
    Blend: AUG-CC-PVTZ-JKFIT
	 Reference Energy          =    -650.1769771707869268 [Eh]
	 Singles Energy            =      -0.0000000000000005 [Eh]
	 Same-Spin Energy          =      -0.6765062467068231 [Eh]
	 Opposite-Spin Energy      =      -2.0169662635090275 [Eh]
	 Correlation Energy        =      -2.6934725102158512 [Eh]
	 Total Energy              =    -652.8704496810028104 [Eh]

	 ================> DF-SCS-MP2 Energies <==================
	-----------------------------------------------------------
	 SCS Same-Spin Scale       =       0.3333333333333333 [-]
	 SCS Opposite-Spin Scale   =       1.2000000000000000 [-]
	 SCS Same-Spin Energy      =      -0.2255020822356077 [Eh]
	 SCS Opposite-Spin Energy  =      -2.4203595162108331 [Eh]
	 SCS Correlation Energy    =      -2.6458615984464413 [Eh]
	 SCS Total Energy          =    -652.8228387692333854 [Eh]
	-----------------------------------------------------------

  -Total Gradient:
     Atom            X                  Y                   Z
    ------   -----------------  -----------------  -----------------
       1        0.000001092325    -0.000003308519     0.000008116095
       2       -0.000051024683    -0.000146576894     0.000022107083
       3        0.000002801919     0.000004323326     0.000001255310
       4       -0.000000467546    -0.000007791979    -0.000020195348
       5       -0.000004333682     0.000000704446    -0.000016816061
       6       -0.000004015132    -0.000003245089     0.000001991510
       7        0.000001749397     0.000001540206    -0.000008568827
       8        0.000012043661     0.000005932881     0.000014122166
       9        0.000005106002     0.000005852946     0.000011168958
      10        0.000096368275     0.000221365224     0.000022586878
      11       -0.000012485527    -0.000013610180    -0.000011969620
      12       -0.000001734102     0.000004047294     0.000007143042
      13       -0.000139179015    -0.000053126680    -0.000214201362
      14       -0.000006036657     0.000007250270     0.000006595014
      15       -0.000001054617     0.000002398365    -0.000000522236
      16        0.000001375319    -0.000002052722    -0.000000869102
      17        0.000000684005    -0.000001794613    -0.000001896289
      18       -0.000000684402    -0.000000025844     0.000001116253
      19        0.000002226836    -0.000000004025    -0.000001232046
      20        0.000000238776     0.000003187166    -0.000001112418
      21       -0.000002066656    -0.000002933494     0.000002976718
      22        0.000099395491    -0.000022132086     0.000178204290

  **** Optimization is complete! (in 12 steps) ****
    Final optimized geometry and variables:
    Molecular point group: c1

    Geometry (in Angstrom), charge = 0, multiplicity = 1:

    C           -1.416345166772     0.552844490657    -0.743807826110
    C           -2.497527925796     1.125030745278    -0.095613598099
    C            0.623496662555    -1.363428341909    -1.814884618843
    C            2.168324927613    -0.189290675796    -0.448821667701
    C           -1.356776033405     0.866122718390     2.000785391132
    C            1.704896597196    -1.898930483769    -2.495442502169
    C            3.184335529086    -0.773064203741    -1.188376845085
    C           -0.281115067347     0.127281652151    -0.053356623528
    C            0.843950393907    -0.480172897286    -0.762131594084
    C           -2.462098744897     1.289873464825     1.280618100104
    C           -0.294656007691     0.303013932985     1.325019153303
    N            2.976046555138    -1.618084028297    -2.200823343815
    O           -3.551634596050     1.805052663201     1.950108724039
    F            0.755929798619    -0.118938761270     2.053335176260
    H           -1.434254337327     0.447491670444    -1.818144857900
    H           -3.367993128897     1.446968409125    -0.644682438043
    H           -0.381292200997    -1.647516174352    -2.089262788895
    H            2.407071729734     0.492756474756     0.350947624919
    H           -1.326917346654     0.961685502188     3.073760928363
    H            1.543684213359    -2.589267187669    -3.311564346951
    H            4.216406426607    -0.549463154039    -0.957883428127
    H           -3.467524762061     2.761749831686     1.992003731345

*** Psi4 exiting successfully. Buy a developer a beer!
