                               Psi4 1.1 release

  ==> Input File <==

--------------------------------------------------------------------------

memory 1000 mb

molecule butane {
  symmetry C1
  0 1
  H      1.604   0.760   -8.260
  H      1.745   2.388   -8.880
  H      2.043   1.024   -9.930
  C      2.142   1.395   -8.932
  H      4.169   2.051   -9.210
  H      3.731   1.788   -7.539
  C      3.631   1.416   -8.537
  H      3.665   -0.647   -7.940
  H      4.104   -0.384   -9.610
  C      4.203   -0.012   -8.612
  H      5.816   -0.470   -7.270
  H      6.029   1.022   -8.153
  H      6.264   -0.511   -8.958
  C      5.691   0.009   -8.218
  units Angstrom
}

dih_string = "7 10 14 13 230"
set optking fixed_dihedral = $dih_string

optimize('MP2/aug-cc-pvtz')
--------------------------------------------------------------------------

    Molecular point group: c1
  Charge       = 0
  Multiplicity = 1
  Basis Set: AUG-CC-PVTZ
    Blend: AUG-CC-PVTZ
  Basis Set: (AUG-CC-PVTZ AUX)
    Blend: AUG-CC-PVTZ-JKFIT
  @DF-RHF Final Energy:  -157.34755867587103
    Total Energy =                       -157.3475586758710278
  Basis Set: (AUG-CC-PVTZ AUX)
    Blend: AUG-CC-PVTZ-RI
    Molecular point group: c1
  Basis Set: AUG-CC-PVTZ
    Blend: AUG-CC-PVTZ
  Basis Set: (AUG-CC-PVTZ AUX)
    Blend: AUG-CC-PVTZ-JKFIT
  Basis Set: (AUG-CC-PVTZ AUX)
    Blend: AUG-CC-PVTZ-JKFIT
	 Reference Energy          =    -157.3475586758710278 [Eh]
	 Singles Energy            =      -0.0000000000000000 [Eh]
	 Same-Spin Energy          =      -0.1654794953042353 [Eh]
	 Opposite-Spin Energy      =      -0.6394494009678325 [Eh]
	 Correlation Energy        =      -0.8049288962720678 [Eh]
	 Total Energy              =    -158.1524875721430874 [Eh]
	 SCS Total Energy          =    -158.1700577888005057 [Eh]
  @DF-RHF Final Energy:  -157.35047003410412
    Total Energy =                       -157.3504700341041200
  @DF-RHF Final Energy:  -157.35137585056947
    Total Energy =                       -157.3513758505694682
  @DF-RHF Final Energy:  -157.35167786265987
    Total Energy =                       -157.3516778626598693
  @DF-RHF Final Energy:  -157.35167068310162
    Total Energy =                       -157.3516706831016165
  @DF-RHF Final Energy:  -157.35167754274400
    Total Energy =                       -157.3516775427439995
  Charge       = 0
  Multiplicity = 1
  Basis Set: AUG-CC-PVTZ
    Blend: AUG-CC-PVTZ
  Basis Set: (AUG-CC-PVTZ AUX)
    Blend: AUG-CC-PVTZ-JKFIT

    Orbital Energies (a.u.)
    -----------------------

    Doubly Occupied:

       1A    -11.211665     2A    -11.210874     3A    -11.205865
       4A    -11.205517     5A     -1.072787     6A     -0.980367
       7A     -0.861971     8A     -0.788982     9A     -0.639005
      10A     -0.583281    11A     -0.577549    12A     -0.570062
      13A     -0.510772    14A     -0.497432    15A     -0.470395
      16A     -0.457696    17A     -0.455395

  @DF-RHF Final Energy:  -157.35167870832387

   => Energetics <=

    Nuclear Repulsion Energy =            131.3014199304773229
    One-Electron Energy =                -470.7069655172284683
    Two-Electron Energy =                 182.0538668784272716
    DFT Exchange-Correlation Energy =       0.0000000000000000
    Empirical Dispersion Energy =           0.0000000000000000
    PCM Polarization Energy =               0.0000000000000000
    EFP Energy =                            0.0000000000000000
    Total Energy =                       -157.3516787083238739
  Basis Set: (AUG-CC-PVTZ AUX)
    Blend: AUG-CC-PVTZ-RI
    Molecular point group: c1
  Basis Set: AUG-CC-PVTZ
    Blend: AUG-CC-PVTZ
  Basis Set: (AUG-CC-PVTZ AUX)
    Blend: AUG-CC-PVTZ-JKFIT
  Basis Set: (AUG-CC-PVTZ AUX)
    Blend: AUG-CC-PVTZ-JKFIT
	 Reference Energy          =    -157.3516787083238739 [Eh]
	 Singles Energy            =      -0.0000000000000000 [Eh]
	 Same-Spin Energy          =      -0.1654559299995442 [Eh]
	 Opposite-Spin Energy      =      -0.6398492541002689 [Eh]
	 Correlation Energy        =      -0.8053051840998131 [Eh]
	 Total Energy              =    -158.1569838924236819 [Eh]

	 ================> DF-SCS-MP2 Energies <==================
	-----------------------------------------------------------
	 SCS Same-Spin Scale       =       0.3333333333333333 [-]
	 SCS Opposite-Spin Scale   =       1.2000000000000000 [-]
	 SCS Same-Spin Energy      =      -0.0551519766665147 [Eh]
	 SCS Opposite-Spin Energy  =      -0.7678191049203227 [Eh]
	 SCS Correlation Energy    =      -0.8229710815868374 [Eh]
	 SCS Total Energy          =    -158.1746497899107169 [Eh]
	-----------------------------------------------------------

  -Total Gradient:
     Atom            X                  Y                   Z
    ------   -----------------  -----------------  -----------------
       1        0.000014356813     0.000017396905    -0.000023622111
       2        0.000014810780    -0.000038177253     0.000001706950
       3        0.000010410635     0.000010975813     0.000038200462
       4       -0.000049198211     0.000011493493     0.000016432303
       5       -0.000010892145     0.000000032427     0.000007463045
       6        0.000028517688     0.000020341948    -0.000033528908
       7        0.000369124164     0.000204101672    -0.001438604182
       8       -0.000022280027    -0.000017892856    -0.000072468351
       9        0.000010141708     0.000010205039    -0.000004593090
      10       -0.000403520577     0.000170407878     0.001780486597
      11        0.000001447587     0.000047775647    -0.000028940613
      12        0.000008582474    -0.000032803403    -0.000014335911
      13        0.000281114995     0.001798972888    -0.001011568265
      14       -0.000252615885    -0.002202830197     0.000783372071

  **** Optimization is complete! (in 7 steps) ****
    Final optimized geometry and variables:
    Molecular point group: c1

    Geometry (in Angstrom), charge = 0, multiplicity = 1:

    H           -2.350552517239     0.067767556041     0.328434987731
    H           -2.201412663452     1.699756018246    -0.313966103022
    H           -1.920463120072     0.311139634799    -1.358543372485
    C           -1.779596900262     0.698146902866    -0.350846776037
    H            0.244433964693     1.352751314965    -0.648587161719
    H           -0.182145736065     1.100920252584     1.027613299357
    C           -0.309913368816     0.695267338190     0.022536949013
    H           -0.267772264335    -1.362256679405     0.603162263349
    H            0.191560220836    -1.070855430764    -1.051517987607
    C            0.305497441627    -0.690783786036    -0.035925203842
    H            1.936572380924    -1.163469155646     1.337623628545
    H            2.168517063842     0.312490176558     0.423239088506
    H            2.396788933211    -1.230559662725    -0.360275384359
    C            1.782708847797    -0.704115655246     0.365311450292

*** Psi4 exiting successfully. Buy a developer a beer!
