                               Psi4 1.1 release

  ==> Input File <==

--------------------------------------------------------------------------

memory 5 Gb

molecule phepyrFOH_neutral {
  symmetry C1
  0 1
  C      1.885   -1.036   -0.112
  C      0.807   -0.463   0.561
  C      4.831   -1.446   -0.930
  C      4.323   -3.576   0.064
  C      1.800   -1.079   2.676
  C      5.889   -2.061   -1.579
  C      5.403   -4.097   -0.630
  C      2.921   -1.631   0.608
  C      4.038   -2.225   -0.095
  C      0.764   -0.484   1.955
  C      2.878   -1.652   2.002
  N      6.197   -3.372   -1.450
  O      -0.289   0.076   2.612
  F      3.866   -2.220   2.709
  H      1.904   -1.012   -1.199
  H      0.002   -0.002   -0.006
  H      4.640   -0.388   -1.078
  H      3.726   -4.215   0.706
  H      1.772   -1.099   3.762
  H      6.538   -1.497   -2.240
  H      5.667   -5.145   -0.542
  H      -0.175   -0.018   3.571
  units Angstrom
}

dih_string = "1 8 9 3 60"
set optking fixed_dihedral = $dih_string

optimize('MP2/aug-cc-PVTZ')
--------------------------------------------------------------------------

    Molecular point group: c1
  Charge       = 0
  Multiplicity = 1
  Basis Set: AUG-CC-PVTZ
    Blend: AUG-CC-PVTZ
  Basis Set: (AUG-CC-PVTZ AUX)
    Blend: AUG-CC-PVTZ-JKFIT
  @DF-RHF Final Energy:  -650.17352444154540
    Total Energy =                       -650.1735244415453963
  Basis Set: (AUG-CC-PVTZ AUX)
    Blend: AUG-CC-PVTZ-RI
    Molecular point group: c1
  Basis Set: AUG-CC-PVTZ
    Blend: AUG-CC-PVTZ
  Basis Set: (AUG-CC-PVTZ AUX)
    Blend: AUG-CC-PVTZ-JKFIT
  Basis Set: (AUG-CC-PVTZ AUX)
    Blend: AUG-CC-PVTZ-JKFIT
	 Reference Energy          =    -650.1735244415453963 [Eh]
	 Singles Energy            =      -0.0000000000000005 [Eh]
	 Same-Spin Energy          =      -0.6775377121671311 [Eh]
	 Opposite-Spin Energy      =      -2.0194782577486192 [Eh]
	 Correlation Energy        =      -2.6970159699157508 [Eh]
	 Total Energy              =    -652.8705404114610928 [Eh]
	 SCS Total Energy          =    -652.8227442548994759 [Eh]
  @DF-RHF Final Energy:  -650.17983760602476
    Total Energy =                       -650.1798376060246483
  @DF-RHF Final Energy:  -650.18165137121434
    Total Energy =                       -650.1816513712144570
  @DF-RHF Final Energy:  -650.18154438333625
    Total Energy =                       -650.1815443833363588
  @DF-RHF Final Energy:  -650.18144474377971
    Total Energy =                       -650.1814447437795934
  @DF-RHF Final Energy:  -650.18147600868861
    Total Energy =                       -650.1814760086886054
  Charge       = 0
  Multiplicity = 1
  Basis Set: AUG-CC-PVTZ
    Blend: AUG-CC-PVTZ
  Basis Set: (AUG-CC-PVTZ AUX)
    Blend: AUG-CC-PVTZ-JKFIT

    Orbital Energies (a.u.)
    -----------------------

    Doubly Occupied:

       1A    -26.321929     2A    -20.610440     3A    -15.562921
       4A    -11.346087     5A    -11.326472     6A    -11.272409
       7A    -11.271607     8A    -11.267342     9A    -11.262575
      10A    -11.253358    11A    -11.251012    12A    -11.240972
      13A    -11.238564    14A    -11.237344    15A     -1.640479
      16A     -1.428247    17A     -1.259374    18A     -1.185241
      19A     -1.112242    20A     -1.043963    21A     -1.034644
      22A     -1.024219    23A     -0.893225    24A     -0.877026
      25A     -0.856707    26A     -0.827797    27A     -0.773969
      28A     -0.746627    29A     -0.726781    30A     -0.708242
      31A     -0.694311    32A     -0.666464    33A     -0.662197
      34A     -0.642719    35A     -0.636330    36A     -0.617286
      37A     -0.611103    38A     -0.597272    39A     -0.581125
      40A     -0.547448    41A     -0.541577    42A     -0.534183
      43A     -0.521908    44A     -0.497608    45A     -0.418209
      46A     -0.391707    47A     -0.361809    48A     -0.347963
      49A     -0.326125

  @DF-RHF Final Energy:  -650.18145741834383

   => Energetics <=

    Nuclear Repulsion Energy =            814.2301358198986918
    One-Electron Energy =               -2503.2248712200635055
    Two-Electron Energy =                1038.8132779818208746
    DFT Exchange-Correlation Energy =       0.0000000000000000
    Empirical Dispersion Energy =           0.0000000000000000
    PCM Polarization Energy =               0.0000000000000000
    EFP Energy =                            0.0000000000000000
    Total Energy =                       -650.1814574183438253
  Basis Set: (AUG-CC-PVTZ AUX)
    Blend: AUG-CC-PVTZ-RI
    Molecular point group: c1
  Basis Set: AUG-CC-PVTZ
    Blend: AUG-CC-PVTZ
  Basis Set: (AUG-CC-PVTZ AUX)
    Blend: AUG-CC-PVTZ-JKFIT
  Basis Set: (AUG-CC-PVTZ AUX)
    Blend: AUG-CC-PVTZ-JKFIT
	 Reference Energy          =    -650.1814574183438253 [Eh]
	 Singles Energy            =      -0.0000000000000000 [Eh]
	 Same-Spin Energy          =      -0.6764907198436630 [Eh]
	 Opposite-Spin Energy      =      -2.0166877398526166 [Eh]
	 Correlation Energy        =      -2.6931784596962798 [Eh]
	 Total Energy              =    -652.8746358780400669 [Eh]

	 ================> DF-SCS-MP2 Energies <==================
	-----------------------------------------------------------
	 SCS Same-Spin Scale       =       0.3333333333333333 [-]
	 SCS Opposite-Spin Scale   =       1.2000000000000000 [-]
	 SCS Same-Spin Energy      =      -0.2254969066145543 [Eh]
	 SCS Opposite-Spin Energy  =      -2.4200252878231399 [Eh]
	 SCS Correlation Energy    =      -2.6455221944376941 [Eh]
	 SCS Total Energy          =    -652.8269796127815425 [Eh]
	-----------------------------------------------------------

  -Total Gradient:
     Atom            X                  Y                   Z
    ------   -----------------  -----------------  -----------------
       1       -0.001259927584    -0.002313475735     0.000009748030
       2       -0.000042258948     0.000006997500     0.000000534039
       3        0.001589891024     0.000575189641     0.002047169345
       4       -0.000004242927     0.000006190102    -0.000015473444
       5        0.000025046426    -0.000023385982     0.000019059261
       6       -0.000055642516    -0.000112187311    -0.000118742289
       7        0.000097783886     0.000036380029     0.000044454835
       8        0.002692954809     0.003781385859     0.000927727854
       9       -0.003024875658    -0.002000518885    -0.002984806268
      10        0.000040278042     0.000045217829    -0.000014915518
      11        0.000002587004    -0.000080000100     0.000066910574
      12        0.000006115417     0.000030076502     0.000017930246
      13       -0.000033514095    -0.000001870606    -0.000017665591
      14        0.000003125914     0.000020885213    -0.000007980498
      15       -0.000003096585    -0.000004247678    -0.000024511494
      16       -0.000004391907     0.000001305664    -0.000000642692
      17        0.000002296410     0.000024421288     0.000016723181
      18       -0.000022817065    -0.000005822042     0.000014314493
      19       -0.000009269086     0.000006145333    -0.000003552752
      20        0.000023674684     0.000015782676     0.000038829287
      21       -0.000031623763    -0.000002267684    -0.000029229789
      22        0.000007906524    -0.000006201609     0.000014119179

  **** Optimization is complete! (in 7 steps) ****
    Final optimized geometry and variables:
    Molecular point group: c1

    Geometry (in Angstrom), charge = 0, multiplicity = 1:

    C           -1.323411344661     0.796011445012    -0.756565538752
    C           -2.399572844834     1.356345252292    -0.093033800355
    C            1.647132623406     0.312328916115    -1.644618990254
    C            1.166028890414    -1.776149768571    -0.622205057754
    C           -1.425043308186     0.699235167869     2.002589335147
    C            2.696524727909    -0.308085146076    -2.305055382870
    C            2.237434018551    -2.307537448895    -1.322192650144
    C           -0.271829889314     0.185007995843    -0.074587645007
    C            0.845085330069    -0.434037586492    -0.789257442608
    C           -2.449329463370     1.309406465533     1.293135650961
    C           -0.369227501573     0.146536731539     1.307264774734
    N            3.001035808714    -1.599037467943    -2.157844890992
    O           -3.526697443703     1.874348712006     1.901451279536
    F            0.613754435865    -0.436073393144     2.018350715691
    H           -1.289253833592     0.821505362633    -1.835626271103
    H           -3.207832572132     1.823055484505    -0.632460040212
    H            1.455278737267     1.364857462886    -1.790593823304
    H            0.583921411799    -2.398401764045     0.039922010998
    H           -1.430510271333     0.647230232924     3.080658783628
    H            3.326942279293     0.258643920495    -2.975861668716
    H            2.494804451655    -3.351248480067    -1.209342657392
    H           -3.441896909979     1.774348574944     2.854413856696

*** Psi4 exiting successfully. Buy a developer a beer!
