                              Psi4 1.0.0 Driver

  ==> Input File <==

--------------------------------------------------------------------------

memory 1000 mb

molecule butane {
  symmetry C1
  0 1
  H      1.604   0.760   -8.260
  H      1.745   2.388   -8.880
  H      2.043   1.024   -9.930
  C      2.142   1.395   -8.932
  H      4.169   2.051   -9.210
  H      3.731   1.788   -7.539
  C      3.631   1.416   -8.537
  H      5.243   0.033   -8.859
  H      4.082   -0.495   -7.665
  C      4.203   -0.012   -8.612
  H      3.851   -1.802   -9.746
  H      3.574   -0.327   -10.641
  H      2.413   -0.856   -9.448
  C      3.453   -0.810   -9.694
  units Angstrom
}

dih_string = "4 7 10 14 30"
set optking fixed_dihedral = $dih_string

optimize('MP2/6-31G(d)')
--------------------------------------------------------------------------

    Molecular point group: c1
  Charge       = 0
  Multiplicity = 1
  Basis Set: 6-31G(D)
  Basis Set:
  @DF-RHF Final Energy:  -157.28096186341051
    Total Energy =                       -157.2809618634104254
  Basis Set:
    Molecular point group: c1
  Basis Set: 6-31G(D)
  Basis Set:
  Basis Set:
	 Reference Energy          =    -157.2809618634105107 [Eh]
	 Singles Energy            =      -0.0000000000000000 [Eh]
	 Same-Spin Energy          =      -0.1254413619120318 [Eh]
	 Opposite-Spin Energy      =      -0.4215290782399596 [Eh]
	 Correlation Energy        =      -0.5469704401519914 [Eh]
	 Total Energy              =    -157.8279323035625055 [Eh]
	 SCS Total Energy          =    -157.8286105446024692 [Eh]
  Basis Set: 6-31G(D)
  Basis Set:
  @DF-RHF Final Energy:  -157.28848150713057
    Total Energy =                       -157.2884815071306548
  Basis Set:
  Basis Set: 6-31G(D)
  Basis Set:
  @DF-RHF Final Energy:  -157.29059160934105
    Total Energy =                       -157.2905916093408791
  @DF-RHF Final Energy:  -157.29166442390601
    Total Energy =                       -157.2916644239060417
  @DF-RHF Final Energy:  -157.29209301521237
    Total Energy =                       -157.2920930152122594
  @DF-RHF Final Energy:  -157.29216669324668
    Total Energy =                       -157.2921666932467701
  @DF-RHF Final Energy:  -157.29220055097898
    Total Energy =                       -157.2922005509790324
  @DF-RHF Final Energy:  -157.29213781374378
    Total Energy =                       -157.2921378137435795
  @DF-RHF Final Energy:  -157.29215573591685
    Total Energy =                       -157.2921557359168503
  @DF-RHF Final Energy:  -157.29211155357936
    Total Energy =                       -157.2921115535792751
  @DF-RHF Final Energy:  -157.29212505892579
    Total Energy =                       -157.2921250589255635
	 Singles Energy            =      -0.0000000000000000 [Eh]
	 Same-Spin Energy          =      -0.1245769998167968 [Eh]
	 Opposite-Spin Energy      =      -0.4226790589658562 [Eh]
	 Correlation Energy        =      -0.5472560587826530 [Eh]
	 Total Energy              =    -157.8393811177084558 [Eh]
	 SCS Total Energy          =    -157.8408655962904277 [Eh]
  Charge       = 0
  Multiplicity = 1
  Basis Set: 6-31G(D)
  Basis Set:

    Orbital Energies (a.u.)
    -----------------------

    Doubly Occupied:

       1A    -11.216196     2A    -11.215633     3A    -11.209686
       4A    -11.209677     5A     -1.068171     6A     -0.973800
       7A     -0.876545     8A     -0.768704     9A     -0.630515
      10A     -0.615950    11A     -0.567476    12A     -0.537552
      13A     -0.525796    14A     -0.506718    15A     -0.463242
      16A     -0.458380    17A     -0.447294

  @DF-RHF Final Energy:  -157.29213249167933

   => Energetics <=

    Nuclear Repulsion Energy =            133.0081288418719225
    One-Electron Energy =                -474.0178552194890358
    Two-Electron Energy =                 183.7175938859378448
    DFT Exchange-Correlation Energy =       0.0000000000000000
    Empirical Dispersion Energy =           0.0000000000000000
    PCM Polarization Energy =               0.0000000000000000
    EFP Energy =                            0.0000000000000000
    Total Energy =                       -157.2921324916792400
  Basis Set:
    Molecular point group: c1
  Basis Set: 6-31G(D)
  Basis Set:
  Basis Set:
	 Reference Energy          =    -157.2921324916793253 [Eh]
	 Singles Energy            =      -0.0000000000000000 [Eh]
	 Same-Spin Energy          =      -0.1245751850859915 [Eh]
	 Opposite-Spin Energy      =      -0.4226787446608360 [Eh]
	 Correlation Energy        =      -0.5472539297468274 [Eh]
	 Total Energy              =    -157.8393864214261555 [Eh]

	 ================> DF-SCS-MP2 Energies <==================
	-----------------------------------------------------------
	 SCS Same-Spin Scale       =       0.3333333333333333 [-]
	 SCS Opposite-Spin Scale   =       1.2000000000000000 [-]
	 SCS Same-Spin Energy      =      -0.0415250616953305 [Eh]
	 SCS Opposite-Spin Energy  =      -0.5072144935930032 [Eh]
	 SCS Correlation Energy    =      -0.5487395552883336 [Eh]
	 SCS Total Energy          =    -157.8408720469676609 [Eh]
	-----------------------------------------------------------

  -Total Gradient:
     Atom            X                  Y                   Z
    ------   -----------------  -----------------  -----------------
       1       -0.000007255881     0.000006743139    -0.000011677485
       2       -0.000000650515    -0.000013558993    -0.000004730447
       3        0.000007107463     0.000003217637     0.000013887324
       4        0.000947006379     0.000755562454    -0.004521927658
       5        0.000016701681    -0.000010139560     0.000012877071
       6       -0.000008317327     0.000000674613    -0.000008010604
       7       -0.002598178487    -0.001733012714     0.007858296368
       8       -0.000008993937    -0.000006006741    -0.000002073606
       9        0.000011009887     0.000020695861     0.000003490404
      10        0.004591173938     0.002468169409    -0.006658055432
      11       -0.000011143606     0.000009573924    -0.000002417304
      12       -0.000008312140    -0.000012374378     0.000002798518
      13        0.000015422571     0.000004788096    -0.000000785260
      14       -0.002945570024    -0.001494332747     0.003318328109

  **** Optimization is complete! (in 12 steps) ****
    Final optimized geometry and variables:
    Molecular point group: c1

    Geometry (in Angstrom), charge = 0, multiplicity = 1:

    H           -1.818190939082     0.383472789017     0.773786597185
    H           -1.571621545582     2.050926902745     0.249426489145
    H           -1.458698233749     0.735405064821    -0.920762681805
    C           -1.229530125623     1.021934055926     0.107391942707
    H            0.786162829706     1.573708056511    -0.308880595720
    H            0.480640467434     1.313832876095     1.393514205614
    C            0.265053647283     0.914734057008     0.396796589724
    H            1.927319378635    -0.425847909406     0.055960885289
    H            0.789673752039    -0.992591661758     1.257456299278
    C            0.857831265735    -0.500650954817     0.279126521874
    H            0.683750274214    -2.378343696668    -0.783896743370
    H            0.201724269906    -0.979560637769    -1.746812603913
    H           -0.866229887286    -1.592771715976    -0.478730096458
    C            0.177652334336    -1.409833029609    -0.740571662402

*** Psi4 exiting successfully. Buy a developer a beer!
