                              Psi4 1.0.0 Driver

  ==> Input File <==

--------------------------------------------------------------------------

memory 1000 mb

molecule butane {
  symmetry C1
  0 1
  H      1.604   0.760   -8.260
  H      1.745   2.388   -8.880
  H      2.043   1.024   -9.930
  C      2.142   1.395   -8.932
  H      4.169   2.051   -9.210
  H      3.731   1.788   -7.539
  C      3.631   1.416   -8.537
  H      5.243   0.033   -8.859
  H      4.082   -0.495   -7.665
  C      4.203   -0.012   -8.612
  H      3.851   -1.802   -9.746
  H      3.574   -0.327   -10.641
  H      2.413   -0.856   -9.448
  C      3.453   -0.810   -9.694
  units Angstrom
}

dih_string = "4 7 10 14 30"
set optking fixed_dihedral = $dih_string

optimize('MP2/6-31G(d)')
--------------------------------------------------------------------------

    Molecular point group: c1
  Charge       = 0
  Multiplicity = 1
  Basis Set: 6-31G(D)
  Basis Set:
  @DF-RHF Final Energy:  -157.28096186341045
    Total Energy =                       -157.2809618634104254
  Basis Set:
    Molecular point group: c1
  Basis Set: 6-31G(D)
  Basis Set:
  Basis Set:
	 Reference Energy          =    -157.2809618634104538 [Eh]
	 Singles Energy            =      -0.0000000000000000 [Eh]
	 Same-Spin Energy          =      -0.1254413619120335 [Eh]
	 Opposite-Spin Energy      =      -0.4215290782399636 [Eh]
	 Correlation Energy        =      -0.5469704401519970 [Eh]
	 Total Energy              =    -157.8279323035624486 [Eh]
	 SCS Total Energy          =    -157.8286105446024123 [Eh]
  Basis Set: 6-31G(D)
  Basis Set:
  @DF-RHF Final Energy:  -157.28848150577949
    Total Energy =                       -157.2884815057796288
  Basis Set:
  Basis Set: 6-31G(D)
  Basis Set:
  @DF-RHF Final Energy:  -157.29059161000836
    Total Energy =                       -157.2905916100084482
  @DF-RHF Final Energy:  -157.29166442444580
    Total Energy =                       -157.2916644244456279
  @DF-RHF Final Energy:  -157.29209301579365
    Total Energy =                       -157.2920930157935118
  @DF-RHF Final Energy:  -157.29216669346840
    Total Energy =                       -157.2921666934681184
  @DF-RHF Final Energy:  -157.29220055137012
    Total Energy =                       -157.2922005513701151
  @DF-RHF Final Energy:  -157.29213781356077
    Total Energy =                       -157.2921378135607995
  @DF-RHF Final Energy:  -157.29215573614169
    Total Energy =                       -157.2921557361415523
  @DF-RHF Final Energy:  -157.29211156201868
    Total Energy =                       -157.2921115620187322
  @DF-RHF Final Energy:  -157.29212506028901
    Total Energy =                       -157.2921250602888676
	 Singles Energy            =      -0.0000000000000000 [Eh]
	 Same-Spin Energy          =      -0.1245769998465688 [Eh]
	 Opposite-Spin Energy      =      -0.4226790577953743 [Eh]
	 Correlation Energy        =      -0.5472560576419431 [Eh]
	 Total Energy              =    -157.8393811179309409 [Eh]
	 SCS Total Energy          =    -157.8408655962589933 [Eh]
  Charge       = 0
  Multiplicity = 1
  Basis Set: 6-31G(D)
  Basis Set:

    Orbital Energies (a.u.)
    -----------------------

    Doubly Occupied:

       1A    -11.216196     2A    -11.215633     3A    -11.209686
       4A    -11.209677     5A     -1.068171     6A     -0.973800
       7A     -0.876545     8A     -0.768704     9A     -0.630515
      10A     -0.615950    11A     -0.567476    12A     -0.537552
      13A     -0.525796    14A     -0.506718    15A     -0.463242
      16A     -0.458380    17A     -0.447294

  @DF-RHF Final Energy:  -157.29213249281048

   => Energetics <=

    Nuclear Repulsion Energy =            133.0081300318067292
    One-Electron Energy =                -474.0178575540899146
    Two-Electron Energy =                 183.7175950294726761
    DFT Exchange-Correlation Energy =       0.0000000000000000
    Empirical Dispersion Energy =           0.0000000000000000
    PCM Polarization Energy =               0.0000000000000000
    EFP Energy =                            0.0000000000000000
    Total Energy =                       -157.2921324928105093
  Basis Set:
    Molecular point group: c1
  Basis Set: 6-31G(D)
  Basis Set:
  Basis Set:
	 Reference Energy          =    -157.2921324928104809 [Eh]
	 Singles Energy            =      -0.0000000000000000 [Eh]
	 Same-Spin Energy          =      -0.1245751853405202 [Eh]
	 Opposite-Spin Energy      =      -0.4226787433863729 [Eh]
	 Correlation Energy        =      -0.5472539287268930 [Eh]
	 Total Energy              =    -157.8393864215373696 [Eh]

	 ================> DF-SCS-MP2 Energies <==================
	-----------------------------------------------------------
	 SCS Same-Spin Scale       =       0.3333333333333333 [-]
	 SCS Opposite-Spin Scale   =       1.2000000000000000 [-]
	 SCS Same-Spin Energy      =      -0.0415250617801734 [Eh]
	 SCS Opposite-Spin Energy  =      -0.5072144920636474 [Eh]
	 SCS Correlation Energy    =      -0.5487395538438208 [Eh]
	 SCS Total Energy          =    -157.8408720466543116 [Eh]
	-----------------------------------------------------------

  -Total Gradient:
     Atom            X                  Y                   Z
    ------   -----------------  -----------------  -----------------
       1       -0.000007252321     0.000006748633    -0.000011684156
       2       -0.000000647837    -0.000013569013    -0.000004731890
       3        0.000007108990     0.000003223239     0.000013898588
       4        0.000947006071     0.000755560534    -0.004521930774
       5        0.000016702090    -0.000010139119     0.000012880322
       6       -0.000008313368     0.000000675860    -0.000008013655
       7       -0.002598185575    -0.001733021883     0.007858293450
       8       -0.000008994297    -0.000006006697    -0.000002068406
       9        0.000011012929     0.000020696705     0.000003489032
      10        0.004591164428     0.002468172170    -0.006658062458
      11       -0.000011148983     0.000009583043    -0.000002417280
      12       -0.000008313541    -0.000012378938     0.000002806212
      13        0.000015435201     0.000004787574    -0.000000788297
      14       -0.002945573786    -0.001494332104     0.003318329311

  **** Optimization is complete! (in 12 steps) ****
    Final optimized geometry and variables:
    Molecular point group: c1

    Geometry (in Angstrom), charge = 0, multiplicity = 1:

    H           -1.818190830219     0.383472505426     0.773786809831
    H           -1.571621528564     2.050926789765     0.249427298057
    H           -1.458698321881     0.735405418924    -0.920762350754
    C           -1.229530100722     1.021934018017     0.107392339115
    H            0.786162787671     1.573708121684    -0.308880325192
    H            0.480640683270     1.313832554378     1.393514430829
    C            0.265053693694     0.914733952847     0.396796765840
    H            1.927319383870    -0.425847915201     0.055960591535
    H            0.789673903629    -0.992591954235     1.257455962364
    C            0.857831289571    -0.500651015597     0.279126293818
    H            0.683750244076    -2.378343437824    -0.783897481192
    H            0.201723923772    -0.979560169372    -1.746812826060
    H           -0.866229891536    -1.592771706042    -0.478730289599
    C            0.177652240207    -1.409832838506    -0.740572012293

*** Psi4 exiting successfully. Buy a developer a beer!
