                               Psi4 1.1 release

  ==> Input File <==

--------------------------------------------------------------------------

memory 1000 mb

molecule butane {
  symmetry C1
  0 1
  H      1.604   0.760   -8.260
  H      1.745   2.388   -8.880
  H      2.043   1.024   -9.930
  C      2.142   1.395   -8.932
  H      4.169   2.051   -9.210
  H      3.731   1.788   -7.539
  C      3.631   1.416   -8.537
  H      3.665   -0.647   -7.940
  H      4.104   -0.384   -9.610
  C      4.203   -0.012   -8.612
  H      6.289   0.166   -9.091
  H      5.955   -0.925   -7.769
  H      5.865   0.801   -7.520
  C      5.691   0.009   -8.218
  units Angstrom
}

dih_string = "7 10 14 13 30"
set optking fixed_dihedral = $dih_string

optimize('MP2/aug-cc-pvtz')
--------------------------------------------------------------------------

    Molecular point group: c1
  Charge       = 0
  Multiplicity = 1
  Basis Set: AUG-CC-PVTZ
    Blend: AUG-CC-PVTZ
  Basis Set: (AUG-CC-PVTZ AUX)
    Blend: AUG-CC-PVTZ-JKFIT
  @DF-RHF Final Energy:  -157.35000623048495
    Total Energy =                       -157.3500062304849507
  Basis Set: (AUG-CC-PVTZ AUX)
    Blend: AUG-CC-PVTZ-RI
    Molecular point group: c1
  Basis Set: AUG-CC-PVTZ
    Blend: AUG-CC-PVTZ
  Basis Set: (AUG-CC-PVTZ AUX)
    Blend: AUG-CC-PVTZ-JKFIT
  Basis Set: (AUG-CC-PVTZ AUX)
    Blend: AUG-CC-PVTZ-JKFIT
	 Reference Energy          =    -157.3500062304849507 [Eh]
	 Singles Energy            =      -0.0000000000000000 [Eh]
	 Same-Spin Energy          =      -0.1654328896997573 [Eh]
	 Opposite-Spin Energy      =      -0.6391108621769184 [Eh]
	 Correlation Energy        =      -0.8045437518766756 [Eh]
	 Total Energy              =    -158.1545499823616296 [Eh]
	 SCS Total Energy          =    -158.1720835616638396 [Eh]
  @DF-RHF Final Energy:  -157.35277337932163
    Total Energy =                       -157.3527733793216328
  @DF-RHF Final Energy:  -157.35364651787296
    Total Energy =                       -157.3536465178729600
  @DF-RHF Final Energy:  -157.35396947093997
    Total Energy =                       -157.3539694709399726
  @DF-RHF Final Energy:  -157.35401171366573
    Total Energy =                       -157.3540117136657273
  Charge       = 0
  Multiplicity = 1
  Basis Set: AUG-CC-PVTZ
    Blend: AUG-CC-PVTZ
  Basis Set: (AUG-CC-PVTZ AUX)
    Blend: AUG-CC-PVTZ-JKFIT

    Orbital Energies (a.u.)
    -----------------------

    Doubly Occupied:

       1A    -11.211593     2A    -11.210835     3A    -11.205998
       4A    -11.205765     5A     -1.073764     6A     -0.981370
       7A     -0.861413     8A     -0.788584     9A     -0.639776
      10A     -0.585626    11A     -0.578042    12A     -0.567810
      13A     -0.513805    14A     -0.494506    15A     -0.470553
      16A     -0.459196    17A     -0.456373

  @DF-RHF Final Energy:  -157.35401588791873

   => Energetics <=

    Nuclear Repulsion Energy =            131.4514053394159419
    One-Electron Energy =                -471.0008224471077369
    Two-Electron Energy =                 182.1954012197730606
    DFT Exchange-Correlation Energy =       0.0000000000000000
    Empirical Dispersion Energy =           0.0000000000000000
    PCM Polarization Energy =               0.0000000000000000
    EFP Energy =                            0.0000000000000000
    Total Energy =                       -157.3540158879187345
  Basis Set: (AUG-CC-PVTZ AUX)
    Blend: AUG-CC-PVTZ-RI
    Molecular point group: c1
  Basis Set: AUG-CC-PVTZ
    Blend: AUG-CC-PVTZ
  Basis Set: (AUG-CC-PVTZ AUX)
    Blend: AUG-CC-PVTZ-JKFIT
  Basis Set: (AUG-CC-PVTZ AUX)
    Blend: AUG-CC-PVTZ-JKFIT
	 Reference Energy          =    -157.3540158879187345 [Eh]
	 Singles Energy            =      -0.0000000000000000 [Eh]
	 Same-Spin Energy          =      -0.1654706628482293 [Eh]
	 Opposite-Spin Energy      =      -0.6395327536110351 [Eh]
	 Correlation Energy        =      -0.8050034164592643 [Eh]
	 Total Energy              =    -158.1590193043780062 [Eh]

	 ================> DF-SCS-MP2 Energies <==================
	-----------------------------------------------------------
	 SCS Same-Spin Scale       =       0.3333333333333333 [-]
	 SCS Opposite-Spin Scale   =       1.2000000000000000 [-]
	 SCS Same-Spin Energy      =      -0.0551568876160764 [Eh]
	 SCS Opposite-Spin Energy  =      -0.7674393043332421 [Eh]
	 SCS Correlation Energy    =      -0.8225961919493185 [Eh]
	 SCS Total Energy          =    -158.1766120798680504 [Eh]
	-----------------------------------------------------------

  -Total Gradient:
     Atom            X                  Y                   Z
    ------   -----------------  -----------------  -----------------
       1       -0.000002698146     0.000010457727    -0.000022800983
       2        0.000000059895    -0.000015029836    -0.000003973757
       3        0.000003972421     0.000002940858     0.000013174206
       4        0.000008115691    -0.000010493009     0.000045294063
       5        0.000012195789     0.000000371276     0.000023791966
       6        0.000001019300     0.000012217080    -0.000030963545
       7       -0.000601964648    -0.000353502155     0.002314987461
       8        0.000025337550    -0.000008535513    -0.000040115472
       9       -0.000021550682     0.000013169978     0.000002189235
      10        0.000998636629     0.001012376228    -0.003849537634
      11       -0.000034173327    -0.000022047804     0.000038362313
      12        0.000001529878     0.000006237434     0.000025231057
      13        0.000652210362     0.002072517715    -0.002545266021
      14       -0.001042690711    -0.002720679981     0.004029627114

  **** Optimization is complete! (in 6 steps) ****
    Final optimized geometry and variables:
    Molecular point group: c1

    Geometry (in Angstrom), charge = 0, multiplicity = 1:

    H           -2.354681135430     0.059451118156     0.274407829668
    H           -2.189315835320     1.712396505648    -0.307291189172
    H           -1.885609839660     0.360624051158    -1.392707288124
    C           -1.767437437008     0.712003018556    -0.369354143622
    H            0.266019266530     1.361651217273    -0.605984306516
    H           -0.201900266575     1.078244883602     1.054448441038
    C           -0.307053271039     0.693267706485     0.039385596341
    H           -0.257980789005    -1.335678474639     0.671929347385
    H            0.150007335375    -1.119525855764    -1.010858099694
    C            0.297227282425    -0.697070516699    -0.016680947107
    H            2.390406411817    -0.519496951022    -0.530039004258
    H            2.089895208378    -1.660104778897     0.771214161322
    H            2.003306633003     0.083234199921     1.058239019318
    C            1.776411226486    -0.709946762021     0.348047103230

*** Psi4 exiting successfully. Buy a developer a beer!
