                               Psi4 1.1 release

  ==> Input File <==

--------------------------------------------------------------------------

memory 1000 mb

molecule butane {
  symmetry C1
  0 1
  H      3.862   1.567   -6.406
  H      2.678   2.667   -7.072
  H      2.300   0.969   -6.911
  C      3.075   1.674   -7.123
  H      2.843   1.522   -9.254
  H      4.406   2.122   -8.751
  C      3.631   1.416   -8.537
  H      3.665   -0.647   -7.940
  H      4.104   -0.384   -9.610
  C      4.203   -0.012   -8.612
  H      6.088   -0.983   -8.270
  H      5.791   0.381   -7.220
  H      6.230   0.644   -8.890
  C      5.691   0.009   -8.218
  units Angstrom
}

dih_string = "14 10 7 4 270"
set optking fixed_dihedral = $dih_string

optimize('MP2/aug-cc-pvtz')
--------------------------------------------------------------------------

    Molecular point group: c1
  Charge       = 0
  Multiplicity = 1
  Basis Set: AUG-CC-PVTZ
    Blend: AUG-CC-PVTZ
  Basis Set: (AUG-CC-PVTZ AUX)
    Blend: AUG-CC-PVTZ-JKFIT
  @DF-RHF Final Energy:  -157.34917378531469
    Total Energy =                       -157.3491737853146901
  Basis Set: (AUG-CC-PVTZ AUX)
    Blend: AUG-CC-PVTZ-RI
    Molecular point group: c1
  Basis Set: AUG-CC-PVTZ
    Blend: AUG-CC-PVTZ
  Basis Set: (AUG-CC-PVTZ AUX)
    Blend: AUG-CC-PVTZ-JKFIT
  Basis Set: (AUG-CC-PVTZ AUX)
    Blend: AUG-CC-PVTZ-JKFIT
	 Reference Energy          =    -157.3491737853146901 [Eh]
	 Singles Energy            =      -0.0000000000000001 [Eh]
	 Same-Spin Energy          =      -0.1657861730334294 [Eh]
	 Opposite-Spin Energy      =      -0.6395456275373830 [Eh]
	 Correlation Energy        =      -0.8053318005708124 [Eh]
	 Total Energy              =    -158.1545055858855164 [Eh]
	 SCS Total Energy          =    -158.1718905960373718 [Eh]
  @DF-RHF Final Energy:  -157.35179445447551
    Total Energy =                       -157.3517944544755096
  @DF-RHF Final Energy:  -157.35267738901118
    Total Energy =                       -157.3526773890111770
  @DF-RHF Final Energy:  -157.35297443186306
    Total Energy =                       -157.3529744318630605
  @DF-RHF Final Energy:  -157.35301587873863
    Total Energy =                       -157.3530158787386313
  @DF-RHF Final Energy:  -157.35301156651431
    Total Energy =                       -157.3530115665143114
  @DF-RHF Final Energy:  -157.35300582526705
    Total Energy =                       -157.3530058252670472
  Charge       = 0
  Multiplicity = 1
  Basis Set: AUG-CC-PVTZ
    Blend: AUG-CC-PVTZ
  Basis Set: (AUG-CC-PVTZ AUX)
    Blend: AUG-CC-PVTZ-JKFIT

    Orbital Energies (a.u.)
    -----------------------

    Doubly Occupied:

       1A    -11.211309     2A    -11.210697     3A    -11.206240
       4A    -11.206237     5A     -1.073654     6A     -0.978979
       7A     -0.867350     8A     -0.782462     9A     -0.626793
      10A     -0.616957    11A     -0.577958    12A     -0.539189
      13A     -0.522268    14A     -0.506072    15A     -0.467374
      16A     -0.456174    17A     -0.454249

  @DF-RHF Final Energy:  -157.35299901993596

   => Energetics <=

    Nuclear Repulsion Energy =            132.8227381315787738
    One-Electron Energy =                -473.7435486427914384
    Two-Electron Energy =                 183.5678114912767001
    DFT Exchange-Correlation Energy =       0.0000000000000000
    Empirical Dispersion Energy =           0.0000000000000000
    PCM Polarization Energy =               0.0000000000000000
    EFP Energy =                            0.0000000000000000
    Total Energy =                       -157.3529990199359645
  Basis Set: (AUG-CC-PVTZ AUX)
    Blend: AUG-CC-PVTZ-RI
    Molecular point group: c1
  Basis Set: AUG-CC-PVTZ
    Blend: AUG-CC-PVTZ
  Basis Set: (AUG-CC-PVTZ AUX)
    Blend: AUG-CC-PVTZ-JKFIT
  Basis Set: (AUG-CC-PVTZ AUX)
    Blend: AUG-CC-PVTZ-JKFIT
	 Reference Energy          =    -157.3529990199359645 [Eh]
	 Singles Energy            =      -0.0000000000000000 [Eh]
	 Same-Spin Energy          =      -0.1656663641073253 [Eh]
	 Opposite-Spin Energy      =      -0.6398756540411314 [Eh]
	 Correlation Energy        =      -0.8055420181484567 [Eh]
	 Total Energy              =    -158.1585410380844223 [Eh]

	 ================> DF-SCS-MP2 Energies <==================
	-----------------------------------------------------------
	 SCS Same-Spin Scale       =       0.3333333333333333 [-]
	 SCS Opposite-Spin Scale   =       1.2000000000000000 [-]
	 SCS Same-Spin Energy      =      -0.0552221213691084 [Eh]
	 SCS Opposite-Spin Energy  =      -0.7678507848493578 [Eh]
	 SCS Correlation Energy    =      -0.8230729062184662 [Eh]
	 SCS Total Energy          =    -158.1760719261544352 [Eh]
	-----------------------------------------------------------

  -Total Gradient:
     Atom            X                  Y                   Z
    ------   -----------------  -----------------  -----------------
       1       -0.000008172309     0.000003278324     0.000002698596
       2        0.000001399231    -0.000002296084    -0.000001655678
       3        0.000004585908     0.000003616711    -0.000006623770
       4       -0.002128742999    -0.000928374086    -0.000690955305
       5       -0.000006189235     0.000003449541     0.000003495675
       6       -0.000011284941    -0.000002444831    -0.000009324717
       7        0.003163643339     0.001450048789     0.000094015577
       8       -0.000001065534    -0.000001179661    -0.000014884967
       9        0.000006995930    -0.000003165335    -0.000001885718
      10       -0.001591743720    -0.000977659364     0.002937537773
      11       -0.000002441184     0.000002293434    -0.000000297108
      12        0.000007333316    -0.000003676665    -0.000004376246
      13       -0.000007442472    -0.000004451060     0.000000738618
      14        0.000573124668     0.000460560287    -0.002308482733

  **** Optimization is complete! (in 8 steps) ****
    Final optimized geometry and variables:
    Molecular point group: c1

    Geometry (in Angstrom), charge = 0, multiplicity = 1:

    H           -0.354075383991     0.754514252242     1.755485380012
    H           -1.520181629678     1.884545561076     1.081641012745
    H           -1.921640380161     0.174676851625     1.208338944249
    C           -1.119879606025     0.877317610532     0.991121355604
    H           -1.360111980139     0.714606035469    -1.123429915179
    H            0.182664261426     1.381664549697    -0.646702339520
    C           -0.555414522893     0.619226652354    -0.394929618920
    H           -0.452523973603    -1.462842842729     0.126110495172
    H           -0.016611934274    -1.128739168592    -1.532427629825
    C            0.085332507309    -0.760633167641    -0.511911997517
    H            1.991224412544    -1.742849453058    -0.172951710481
    H            1.708789723188    -0.347002896865     0.857912126649
    H            2.113629105139    -0.116921978537    -0.837968273721
    C            1.558789406881    -0.745288143768    -0.144413978865

*** Psi4 exiting successfully. Buy a developer a beer!
