                               Psi4 1.1 release

  ==> Input File <==

--------------------------------------------------------------------------

memory 1000 mb

molecule butane {
  symmetry C1
  0 1
  H      1.604   0.760   -8.260
  H      1.745   2.388   -8.880
  H      2.043   1.024   -9.930
  C      2.142   1.395   -8.932
  H      4.169   2.051   -9.210
  H      3.731   1.788   -7.539
  C      3.631   1.416   -8.537
  H      3.665   -0.647   -7.940
  H      4.104   -0.384   -9.610
  C      4.203   -0.012   -8.612
  H      5.843   -0.616   -7.363
  H      5.984   1.011   -7.983
  H      6.282   -0.353   -9.033
  C      5.691   0.009   -8.218
  units Angstrom
}

dih_string = "7 10 14 13 240"
set optking fixed_dihedral = $dih_string

optimize('MP2/aug-cc-pvtz')
--------------------------------------------------------------------------

    Molecular point group: c1
  Charge       = 0
  Multiplicity = 1
  Basis Set: AUG-CC-PVTZ
    Blend: AUG-CC-PVTZ
  Basis Set: (AUG-CC-PVTZ AUX)
    Blend: AUG-CC-PVTZ-JKFIT
  @DF-RHF Final Energy:  -157.34718134730056
    Total Energy =                       -157.3471813473005625
  Basis Set: (AUG-CC-PVTZ AUX)
    Blend: AUG-CC-PVTZ-RI
    Molecular point group: c1
  Basis Set: AUG-CC-PVTZ
    Blend: AUG-CC-PVTZ
  Basis Set: (AUG-CC-PVTZ AUX)
    Blend: AUG-CC-PVTZ-JKFIT
  Basis Set: (AUG-CC-PVTZ AUX)
    Blend: AUG-CC-PVTZ-JKFIT
	 Reference Energy          =    -157.3471813473005625 [Eh]
	 Singles Energy            =      -0.0000000000000000 [Eh]
	 Same-Spin Energy          =      -0.1654857979186492 [Eh]
	 Opposite-Spin Energy      =      -0.6394843847316722 [Eh]
	 Correlation Energy        =      -0.8049701826503215 [Eh]
	 Total Energy              =    -158.1521515299508849 [Eh]
	 SCS Total Energy          =    -158.1697245416181090 [Eh]
  @DF-RHF Final Energy:  -157.35011723928480
    Total Energy =                       -157.3501172392847991
  @DF-RHF Final Energy:  -157.35102225885296
    Total Energy =                       -157.3510222588529643
  @DF-RHF Final Energy:  -157.35129681631506
    Total Energy =                       -157.3512968163150560
  Charge       = 0
  Multiplicity = 1
  Basis Set: AUG-CC-PVTZ
    Blend: AUG-CC-PVTZ
  Basis Set: (AUG-CC-PVTZ AUX)
    Blend: AUG-CC-PVTZ-JKFIT

    Orbital Energies (a.u.)
    -----------------------

    Doubly Occupied:

       1A    -11.211691     2A    -11.210887     3A    -11.205886
       4A    -11.205520     5A     -1.072604     6A     -0.980137
       7A     -0.862040     8A     -0.788952     9A     -0.638684
      10A     -0.583467    11A     -0.577756    12A     -0.569564
      13A     -0.511138    14A     -0.497085    15A     -0.470374
      16A     -0.456580    17A     -0.456067

  @DF-RHF Final Energy:  -157.35127468707327

   => Energetics <=

    Nuclear Repulsion Energy =            131.2698040066444776
    One-Electron Energy =                -470.6452928116432304
    Two-Electron Energy =                 182.0242141179255100
    DFT Exchange-Correlation Energy =       0.0000000000000000
    Empirical Dispersion Energy =           0.0000000000000000
    PCM Polarization Energy =               0.0000000000000000
    EFP Energy =                            0.0000000000000000
    Total Energy =                       -157.3512746870732713
  Basis Set: (AUG-CC-PVTZ AUX)
    Blend: AUG-CC-PVTZ-RI
    Molecular point group: c1
  Basis Set: AUG-CC-PVTZ
    Blend: AUG-CC-PVTZ
  Basis Set: (AUG-CC-PVTZ AUX)
    Blend: AUG-CC-PVTZ-JKFIT
  Basis Set: (AUG-CC-PVTZ AUX)
    Blend: AUG-CC-PVTZ-JKFIT
	 Reference Energy          =    -157.3512746870732713 [Eh]
	 Singles Energy            =      -0.0000000000000000 [Eh]
	 Same-Spin Energy          =      -0.1654446030179963 [Eh]
	 Opposite-Spin Energy      =      -0.6398946506077573 [Eh]
	 Correlation Energy        =      -0.8053392536257535 [Eh]
	 Total Energy              =    -158.1566139406990317 [Eh]

	 ================> DF-SCS-MP2 Energies <==================
	-----------------------------------------------------------
	 SCS Same-Spin Scale       =       0.3333333333333333 [-]
	 SCS Opposite-Spin Scale   =       1.2000000000000000 [-]
	 SCS Same-Spin Energy      =      -0.0551482010059988 [Eh]
	 SCS Opposite-Spin Energy  =      -0.7678735807293088 [Eh]
	 SCS Correlation Energy    =      -0.8230217817353076 [Eh]
	 SCS Total Energy          =    -158.1742964688085920 [Eh]
	-----------------------------------------------------------

  -Total Gradient:
     Atom            X                  Y                   Z
    ------   -----------------  -----------------  -----------------
       1       -0.000050090192    -0.000038122156     0.000035714308
       2       -0.000026821171     0.000057663252     0.000002850365
       3       -0.000022921831    -0.000022489297    -0.000065957570
       4        0.000179002914    -0.000026352713     0.000044402848
       5        0.000016086385     0.000013569235    -0.000031135694
       6        0.000000314654    -0.000002517179     0.000037515973
       7       -0.000028822158    -0.000013962918    -0.000040162230
       8       -0.000003572930     0.000007310344     0.000045699699
       9        0.000022216676    -0.000005705230    -0.000018301676
      10       -0.000075327266     0.000006324729    -0.000006663510
      11        0.000007891807    -0.000070025291     0.000036676472
      12       -0.000003092653     0.000029691478     0.000021310175
      13        0.000026811004    -0.000010986980    -0.000058651000
      14       -0.000041675235     0.000075602722    -0.000003298158

  **** Optimization is complete! (in 5 steps) ****
    Final optimized geometry and variables:
    Molecular point group: c1

    Geometry (in Angstrom), charge = 0, multiplicity = 1:

    H           -2.353349463585     0.050006466531     0.308861994056
    H           -2.209331011107     1.690518126662    -0.313174630719
    H           -1.911670214654     0.315945664823    -1.371908665933
    C           -1.780826776835     0.691920131924    -0.358576254455
    H            0.242358106902     1.357796061742    -0.635870249396
    H           -0.196811950891     1.093199003849     1.035503788990
    C           -0.314507322004     0.693586301328     0.026977700810
    H           -0.258700898183    -1.351092505573     0.628605543910
    H            0.179797255114    -1.086986885134    -1.036487089596
    C            0.306157570252    -0.690293796900    -0.029067629021
    H            1.976240683883    -1.317736295773     1.231121423483
    H            2.125470419394     0.310925496821     0.602445793080
    H            2.417812717465    -1.062313396312    -0.445749060256
    C            1.788184186742    -0.695234618497     0.360384928295

*** Psi4 exiting successfully. Buy a developer a beer!
