                               Psi4 1.1 release

  ==> Input File <==

--------------------------------------------------------------------------

memory 5 Gb

molecule phepyrF {
  symmetry C1
  0 1
  C      1.885   -1.036   -0.112
  C      0.807   -0.463   0.561
  C      2.921   -1.631   0.608
  C      0.764   -0.484   1.955
  C      5.246   -2.278   2.227
  C      3.704   -2.856   3.981
  C      6.242   -2.881   2.978
  C      4.769   -3.433   4.653
  C      2.878   -1.652   2.002
  C      3.955   -2.270   2.745
  C      1.800   -1.079   2.676
  N      6.036   -3.461   4.182
  F      1.744   -1.089   4.016
  H      1.918   -1.020   -1.198
  H      0.000   -0.000   -0.000
  H      3.755   -2.073   0.068
  H      -0.076   -0.038   2.480
  H      5.481   -1.830   1.268
  H      2.710   -2.869   4.416
  H      7.266   -2.912   2.620
  H      4.625   -3.905   5.619
  units Angstrom
}

dih_string = "3 9 10 5 30"
set optking fixed_dihedral = $dih_string

optimize('MP2/aug-cc-PVTZ')
--------------------------------------------------------------------------

    Molecular point group: c1
  Charge       = 0
  Multiplicity = 1
  Basis Set: AUG-CC-PVTZ
    Blend: AUG-CC-PVTZ
  Basis Set: (AUG-CC-PVTZ AUX)
    Blend: AUG-CC-PVTZ-JKFIT
  @DF-RHF Final Energy:  -575.27937513089091
    Total Energy =                       -575.2793751308909123
  Basis Set: (AUG-CC-PVTZ AUX)
    Blend: AUG-CC-PVTZ-RI
    Molecular point group: c1
  Basis Set: AUG-CC-PVTZ
    Blend: AUG-CC-PVTZ
  Basis Set: (AUG-CC-PVTZ AUX)
    Blend: AUG-CC-PVTZ-JKFIT
  Basis Set: (AUG-CC-PVTZ AUX)
    Blend: AUG-CC-PVTZ-JKFIT
	 Reference Energy          =    -575.2793751308909123 [Eh]
	 Singles Energy            =      -0.0000000000000002 [Eh]
	 Same-Spin Energy          =      -0.6090850288768257 [Eh]
	 Opposite-Spin Energy      =      -1.8334665221150754 [Eh]
	 Correlation Energy        =      -2.4425515509919014 [Eh]
	 Total Energy              =    -577.7219266818827919 [Eh]
	 SCS Total Energy          =    -577.6825633003879830 [Eh]
  @DF-RHF Final Energy:  -575.28579836038898
    Total Energy =                       -575.2857983603889807
  @DF-RHF Final Energy:  -575.28820473225539
    Total Energy =                       -575.2882047322553944
  @DF-RHF Final Energy:  -575.28891736670903
    Total Energy =                       -575.2889173667090290
  @DF-RHF Final Energy:  -575.28924188746760
    Total Energy =                       -575.2892418874675968
  @DF-RHF Final Energy:  -575.28942203031067
    Total Energy =                       -575.2894220303106749
  @DF-RHF Final Energy:  -575.28949086258467
    Total Energy =                       -575.2894908625846710
  Charge       = 0
  Multiplicity = 1
  Basis Set: AUG-CC-PVTZ
    Blend: AUG-CC-PVTZ
  Basis Set: (AUG-CC-PVTZ AUX)
    Blend: AUG-CC-PVTZ-JKFIT

    Orbital Energies (a.u.)
    -----------------------

    Doubly Occupied:

       1A    -26.319176     2A    -15.563418     3A    -11.339899
       4A    -11.272616     5A    -11.271351     6A    -11.270743
       7A    -11.264462     8A    -11.257974     9A    -11.257469
      10A    -11.251644    11A    -11.248111    12A    -11.239930
      13A    -11.237253    14A     -1.638463    15A     -1.260004
      16A     -1.187162    17A     -1.115857    18A     -1.040362
      19A     -1.033781    20A     -1.030143    21A     -0.894181
      22A     -0.875111    23A     -0.845270    24A     -0.828437
      25A     -0.757584    26A     -0.722931    27A     -0.717478
      28A     -0.706028    29A     -0.673344    30A     -0.663113
      31A     -0.653980    32A     -0.625106    33A     -0.611663
      34A     -0.597690    35A     -0.592793    36A     -0.551750
      37A     -0.541901    38A     -0.527634    39A     -0.520254
      40A     -0.508217    41A     -0.419374    42A     -0.412029
      43A     -0.355311    44A     -0.348606    45A     -0.331094

  @DF-RHF Final Energy:  -575.28951604835163

   => Energetics <=

    Nuclear Repulsion Energy =            715.5197690008998279
    One-Electron Energy =               -2202.8571773054791265
    Two-Electron Energy =                 912.0478922562275557
    DFT Exchange-Correlation Energy =       0.0000000000000000
    Empirical Dispersion Energy =           0.0000000000000000
    PCM Polarization Energy =               0.0000000000000000
    EFP Energy =                            0.0000000000000000
    Total Energy =                       -575.2895160483516293
  Basis Set: (AUG-CC-PVTZ AUX)
    Blend: AUG-CC-PVTZ-RI
    Molecular point group: c1
  Basis Set: AUG-CC-PVTZ
    Blend: AUG-CC-PVTZ
  Basis Set: (AUG-CC-PVTZ AUX)
    Blend: AUG-CC-PVTZ-JKFIT
  Basis Set: (AUG-CC-PVTZ AUX)
    Blend: AUG-CC-PVTZ-JKFIT
	 Reference Energy          =    -575.2895160483516293 [Eh]
	 Singles Energy            =      -0.0000000000000001 [Eh]
	 Same-Spin Energy          =      -0.6076244957841003 [Eh]
	 Opposite-Spin Energy      =      -1.8304613632326530 [Eh]
	 Correlation Energy        =      -2.4380858590167533 [Eh]
	 Total Energy              =    -577.7276019073683528 [Eh]

	 ================> DF-SCS-MP2 Energies <==================
	-----------------------------------------------------------
	 SCS Same-Spin Scale       =       0.3333333333333333 [-]
	 SCS Opposite-Spin Scale   =       1.2000000000000000 [-]
	 SCS Same-Spin Energy      =      -0.2025414985947001 [Eh]
	 SCS Opposite-Spin Energy  =      -2.1965536358791833 [Eh]
	 SCS Correlation Energy    =      -2.3990951344738836 [Eh]
	 SCS Total Energy          =    -577.6886111828255252 [Eh]
	-----------------------------------------------------------

  -Total Gradient:
     Atom            X                  Y                   Z
    ------   -----------------  -----------------  -----------------
       1        0.000003108038     0.000011054931     0.000014122694
       2        0.000000109853    -0.000006407589    -0.000001212078
       3        0.000934863986     0.001752955316     0.000030317613
       4       -0.000026824534    -0.000016895476     0.000016039997
       5       -0.000336212263    -0.001771208359    -0.000888814185
       6       -0.000005810425    -0.000005114264    -0.000041051649
       7       -0.000001479001     0.000059265807    -0.000001146488
       8        0.000026499395     0.000040874735     0.000017972071
       9       -0.001534576360    -0.003497368644    -0.000447400480
      10        0.000922830165     0.003468668768     0.001350962445
      11        0.000044768399     0.000069125948    -0.000122724666
      12       -0.000018235376    -0.000056711660    -0.000001453052
      13       -0.000011512285    -0.000025239037     0.000084697232
      14        0.000000904117    -0.000003874011    -0.000003593954
      15        0.000001771163    -0.000000003036    -0.000005818194
      16        0.000005873881    -0.000005946359    -0.000008080526
      17        0.000005039566    -0.000001173363     0.000010631931
      18       -0.000000583485     0.000002452716    -0.000012489503
      19       -0.000008267305    -0.000005756891     0.000006844906
      20        0.000001818462    -0.000007430489    -0.000000502751
      21       -0.000004085980    -0.000001269041     0.000002698623

  **** Optimization is complete! (in 8 steps) ****
    Final optimized geometry and variables:
    Molecular point group: c1

    Geometry (in Angstrom), charge = 0, multiplicity = 1:

    C           -1.381843969774     0.807708230814    -2.663805226273
    C           -2.454117611923     1.412489716102    -2.022788507655
    C           -0.372622615234     0.222275632122    -1.918125705231
    C           -2.504791063418     1.429141040609    -0.637880838594
    C            1.994986130588    -0.388521356603    -0.263649212108
    C            0.500421879114    -1.040124606005     1.457202530880
    C            3.009306263350    -1.009240539314     0.446049585720
    C            1.577729903299    -1.637281945943     2.092173737682
    C           -0.398495353953     0.211253723902    -0.521296020393
    C            0.696802450638    -0.388548409601     0.241720396973
    C           -1.486065522092     0.837175032481     0.079903303388
    N            2.822967087797    -1.632707272353     1.611548350278
    F           -1.549994916256     0.907351736806     1.423950848539
    H           -1.334731241693     0.785290227976    -3.741008161912
    H           -3.247327096694     1.869752591055    -2.593252371687
    H            0.443911998936    -0.271835613978    -2.421816475058
    H           -3.313898500544     1.899623895228    -0.103176277131
    H            2.224611462555     0.117393206627    -1.188840120753
    H           -0.479723952512    -1.100590669301     1.899310754768
    H            4.019639798823    -1.003713491448     0.061587672918
    H            1.431010192852    -2.148306846680     3.033270365428

*** Psi4 exiting successfully. Buy a developer a beer!
