                               Psi4 1.1 release

  ==> Input File <==

--------------------------------------------------------------------------

memory 5 Gb

molecule phepyrFOH_neutral {
  symmetry C1
  0 1
  C      1.885   -1.036   -0.112
  C      0.807   -0.463   0.561
  C      4.144   -3.607   -0.194
  C      5.008   -1.415   -0.674
  C      1.800   -1.079   2.676
  C      5.231   -4.126   -0.879
  C      6.056   -2.032   -1.337
  C      2.921   -1.631   0.608
  C      4.038   -2.225   -0.095
  C      0.764   -0.484   1.955
  C      2.878   -1.652   2.002
  N      6.194   -3.371   -1.455
  O      -0.289   0.076   2.612
  F      3.866   -2.220   2.709
  H      1.904   -1.012   -1.199
  H      0.002   -0.002   -0.006
  H      3.407   -4.272   0.244
  H      4.958   -0.332   -0.617
  H      1.772   -1.099   3.762
  H      5.360   -5.199   -0.987
  H      6.839   -1.444   -1.806
  H      -0.175   -0.018   3.571
  units Angstrom
}

dih_string = "1 8 9 3 255"
set optking fixed_dihedral = $dih_string

optimize('MP2/aug-cc-PVTZ')
--------------------------------------------------------------------------

    Molecular point group: c1
  Charge       = 0
  Multiplicity = 1
  Basis Set: AUG-CC-PVTZ
    Blend: AUG-CC-PVTZ
  Basis Set: (AUG-CC-PVTZ AUX)
    Blend: AUG-CC-PVTZ-JKFIT
  @DF-RHF Final Energy:  -650.17262230205449
    Total Energy =                       -650.1726223020546058
  Basis Set: (AUG-CC-PVTZ AUX)
    Blend: AUG-CC-PVTZ-RI
    Molecular point group: c1
  Basis Set: AUG-CC-PVTZ
    Blend: AUG-CC-PVTZ
  Basis Set: (AUG-CC-PVTZ AUX)
    Blend: AUG-CC-PVTZ-JKFIT
  Basis Set: (AUG-CC-PVTZ AUX)
    Blend: AUG-CC-PVTZ-JKFIT
	 Reference Energy          =    -650.1726223020544921 [Eh]
	 Singles Energy            =      -0.0000000000000001 [Eh]
	 Same-Spin Energy          =      -0.6772214461565031 [Eh]
	 Opposite-Spin Energy      =      -2.0193059861281855 [Eh]
	 Correlation Energy        =      -2.6965274322846886 [Eh]
	 Total Energy              =    -652.8691497343392030 [Eh]
	 SCS Total Energy          =    -652.8215299674604921 [Eh]
    Molecular point group: c1
  Charge       = 0
  Multiplicity = 1
  Basis Set: AUG-CC-PVTZ
    Blend: AUG-CC-PVTZ
  Basis Set: (AUG-CC-PVTZ AUX)
    Blend: AUG-CC-PVTZ-JKFIT

    Orbital Energies (a.u.)
    -----------------------

    Doubly Occupied:

       1A    -26.324245     2A    -20.608665     3A    -15.564857
       4A    -11.345912     5A    -11.324955     6A    -11.273767
       7A    -11.273417     8A    -11.266747     9A    -11.262368
      10A    -11.251955    11A    -11.251030    12A    -11.241450
      13A    -11.239248    14A    -11.238545    15A     -1.644004
      16A     -1.426366    17A     -1.257218    18A     -1.183365
      19A     -1.111299    20A     -1.041983    21A     -1.035349
      22A     -1.022801    23A     -0.891705    24A     -0.874932
      25A     -0.858635    26A     -0.826394    27A     -0.773624
      28A     -0.747668    29A     -0.726066    30A     -0.710126
      31A     -0.695436    32A     -0.667829    33A     -0.660673
      34A     -0.643679    35A     -0.636633    36A     -0.615118
      37A     -0.609642    38A     -0.598574    39A     -0.579738
      40A     -0.545124    41A     -0.537015    42A     -0.531621
      43A     -0.525121    44A     -0.494784    45A     -0.419840
      46A     -0.383284    47A     -0.360863    48A     -0.348559
      49A     -0.331440

  @DF-RHF Final Energy:  -650.17899639245218

   => Energetics <=

    Nuclear Repulsion Energy =            813.8084559926310249
    One-Electron Energy =               -2502.4075654292519175
    Two-Electron Energy =                1038.4201130441688292
    DFT Exchange-Correlation Energy =       0.0000000000000000
    Empirical Dispersion Energy =           0.0000000000000000
    PCM Polarization Energy =               0.0000000000000000
    EFP Energy =                            0.0000000000000000
    Total Energy =                       -650.1789963924520634
  Basis Set: (AUG-CC-PVTZ AUX)
    Blend: AUG-CC-PVTZ-RI
    Molecular point group: c1

    Geometry (in Angstrom), charge = 0, multiplicity = 1:

       Center              X                  Y                   Z               Mass
    ------------   -----------------  -----------------  -----------------  -----------------
           C         -1.335561409399     0.765328899575    -0.773680625280    12.000000000000
           C         -2.410055031957     1.335501122649    -0.103667305277    12.000000000000
           C          0.961277312325    -1.815988121740    -0.889409441187    12.000000000000
           C          1.817206976830     0.357568725206    -1.369871594485    12.000000000000
           C         -1.412020007378     0.713146028616     1.993796191551    12.000000000000
           C          2.048267194894    -2.337558732322    -1.573268692572    12.000000000000
           C          2.866633392863    -0.259679868432    -2.032739205625    12.000000000000
           C         -0.291237548441     0.165227682516    -0.075898082475    12.000000000000
           C          0.840609283526    -0.436990615348    -0.784387474240    12.000000000000
           C         -2.447337108347     1.309279497716     1.282118202686    12.000000000000
           C         -0.349098405940     0.149210009263     1.309360174371    12.000000000000
           N          3.002388701561    -1.588612190277    -2.145914442195    14.003074004780
           O         -3.509127857296     1.874028389080     1.916629612209    15.994914619560
           F          0.641046377961    -0.421623125372     2.007295630228    18.998403224000
           H         -1.314846155086     0.789530652074    -1.854347692539     1.007825032070
           H         -3.215662341990     1.797224023032    -0.657752628001     1.007825032070
           H          0.226336309907    -2.476112916130    -0.451324514268     1.007825032070
           H          1.765971098374     1.435839517490    -1.314075460751     1.007825032070
           H         -1.428862276047     0.685415096604     3.075512870657     1.007825032070
           H          2.174931341234    -3.407600831726    -1.677442851648     1.007825032070
           H          3.646305799592     0.327529195766    -2.500785575565     1.007825032070
           H         -3.399624647365     1.781036195539     2.869298059271     1.007825032070

  Basis Set: AUG-CC-PVTZ
    Blend: AUG-CC-PVTZ
  Basis Set: (AUG-CC-PVTZ AUX)
    Blend: AUG-CC-PVTZ-JKFIT
  Basis Set: (AUG-CC-PVTZ AUX)
    Blend: AUG-CC-PVTZ-JKFIT
	 Reference Energy          =    -650.1789963924521771 [Eh]
	 Singles Energy            =      -0.0000000000000003 [Eh]
	 Same-Spin Energy          =      -0.6763866270351182 [Eh]
	 Opposite-Spin Energy      =      -2.0170505871703472 [Eh]
	 Correlation Energy        =      -2.6934372142054657 [Eh]
	 Total Energy              =    -652.8724336066576370 [Eh]

	 ================> DF-SCS-MP2 Energies <==================
	-----------------------------------------------------------
	 SCS Same-Spin Scale       =       0.3333333333333333 [-]
	 SCS Opposite-Spin Scale   =       1.2000000000000000 [-]
	 SCS Same-Spin Energy      =      -0.2254622090117060 [Eh]
	 SCS Opposite-Spin Energy  =      -2.4204607046044164 [Eh]
	 SCS Correlation Energy    =      -2.6459229136161229 [Eh]
	 SCS Total Energy          =    -652.8249193060682956 [Eh]
	-----------------------------------------------------------

  -Total Gradient:
     Atom            X                  Y                   Z
    ------   -----------------  -----------------  -----------------
       1        0.004496775536    -0.003575329427    -0.006677974410
       2        0.000760253325    -0.000755952442     0.004493911175
       3       -0.003965761940     0.000584707196     0.001533817388
       4       -0.001342940982     0.002581017553     0.002187700567
       5       -0.002120843320     0.001271326673    -0.001572969566
       6       -0.005250357345     0.000398883870     0.003201648002
       7       -0.003727636571     0.004191243048     0.002762654246
       8       -0.003763233807     0.002112486840     0.002308853279
       9        0.001577379603    -0.001043143289    -0.002052475523
      10       -0.004188964831     0.002466808495    -0.003553470016
      11        0.011488781509    -0.005034944903     0.003707670988
      12        0.006332036483    -0.003191382964    -0.003983366085
      13        0.001891983990    -0.001048222660     0.001262383357
      14       -0.001507367682     0.000689147505    -0.000885187901
      15       -0.001563905069     0.001029261261    -0.001448501715
      16       -0.000814445966     0.000629803113    -0.002408923959
      17       -0.000155248986    -0.001568970263    -0.000049100887
      18        0.000668696715     0.001221557896    -0.000792024083
      19       -0.000989503438     0.000328496427     0.001600321447
      20        0.001224686825    -0.000862696611    -0.000783106458
      21        0.001245639104    -0.000504124499    -0.000838942670
      22       -0.000296023163     0.000080027186     0.001987082820

*** Psi4 exiting successfully. Buy a developer a beer!
