                              Psi4 1.0.0 Driver

  ==> Input File <==

--------------------------------------------------------------------------

memory 1000 mb

molecule butane {
  symmetry C1
  0 1
  H      1.604   0.760   -8.260
  H      1.745   2.388   -8.880
  H      2.043   1.024   -9.930
  C      2.142   1.395   -8.932
  H      4.169   2.051   -9.210
  H      3.731   1.788   -7.539
  C      3.631   1.416   -8.537
  H      4.105   -0.383   -9.610
  H      5.237   0.003   -8.338
  C      4.203   -0.012   -8.612
  H      3.827   -1.919   -7.698
  H      2.395   -0.942   -7.919
  H      3.528   -0.556   -6.646
  C      3.429   -0.927   -7.645
  units Angstrom
}

dih_string = "4 7 10 14 300"
set optking fixed_dihedral = $dih_string

optimize('MP2/6-31G(d)')
--------------------------------------------------------------------------

    Molecular point group: c1
  Charge       = 0
  Multiplicity = 1
  Basis Set: 6-31G(D)
  Basis Set:
  @DF-RHF Final Energy:  -157.28967579041495
    Total Energy =                       -157.2896757904150036
  Basis Set:
    Molecular point group: c1
  Basis Set: 6-31G(D)
  Basis Set:
  Basis Set:
	 Reference Energy          =    -157.2896757904149467 [Eh]
	 Singles Energy            =      -0.0000000000000000 [Eh]
	 Same-Spin Energy          =      -0.1250566190944397 [Eh]
	 Opposite-Spin Energy      =      -0.4208604994791191 [Eh]
	 Correlation Energy        =      -0.5459171185735587 [Eh]
	 Total Energy              =    -157.8355929089885024 [Eh]
	 SCS Total Energy          =    -157.8363939294880254 [Eh]
  Basis Set: 6-31G(D)
  Basis Set:
  @DF-RHF Final Energy:  -157.29420484686895
    Total Energy =                       -157.2942048468690359
  Basis Set:
  Basis Set: 6-31G(D)
  Basis Set:
  @DF-RHF Final Energy:  -157.29540060659815
    Total Energy =                       -157.2954006065982071
  @DF-RHF Final Energy:  -157.29609621841666
    Total Energy =                       -157.2960962184164941
  @DF-RHF Final Energy:  -157.29618895593023
    Total Energy =                       -157.2961889559302051
  @DF-RHF Final Energy:  -157.29622001673224
    Total Energy =                       -157.2962200167322635
  @DF-RHF Final Energy:  -157.29621641404773
    Total Energy =                       -157.2962164140477057
	 Singles Energy            =      -0.0000000000000000 [Eh]
	 Same-Spin Energy          =      -0.1246795690822279 [Eh]
	 Opposite-Spin Energy      =      -0.4225057278886996 [Eh]
	 Correlation Energy        =      -0.5471852969709275 [Eh]
	 Total Energy              =    -157.8434017110186574 [Eh]
	 SCS Total Energy          =    -157.8447831438749063 [Eh]
  Charge       = 0
  Multiplicity = 1
  Basis Set: 6-31G(D)
  Basis Set:

    Orbital Energies (a.u.)
    -----------------------

    Doubly Occupied:

       1A    -11.216017     2A    -11.215422     3A    -11.209730
       4A    -11.209727     5A     -1.070497     6A     -0.974684
       7A     -0.872843     8A     -0.773611     9A     -0.624481
      10A     -0.618920    11A     -0.572081    12A     -0.532880
      13A     -0.531174    14A     -0.502716    15A     -0.459899
      16A     -0.458478    17A     -0.456281

  @DF-RHF Final Energy:  -157.29621404703715

   => Energetics <=

    Nuclear Repulsion Energy =            132.7924443978443492
    One-Electron Energy =                -473.5784338581453312
    Two-Electron Energy =                 183.4897754132638852
    DFT Exchange-Correlation Energy =       0.0000000000000000
    Empirical Dispersion Energy =           0.0000000000000000
    PCM Polarization Energy =               0.0000000000000000
    EFP Energy =                            0.0000000000000000
    Total Energy =                       -157.2962140470370969
  Basis Set:
    Molecular point group: c1
  Basis Set: 6-31G(D)
  Basis Set:
  Basis Set:
	 Reference Energy          =    -157.2962140470371537 [Eh]
	 Singles Energy            =      -0.0000000000000000 [Eh]
	 Same-Spin Energy          =      -0.1246804792345924 [Eh]
	 Opposite-Spin Energy      =      -0.4225060130144401 [Eh]
	 Correlation Energy        =      -0.5471864922490325 [Eh]
	 Total Energy              =    -157.8434005392861934 [Eh]

	 ================> DF-SCS-MP2 Energies <==================
	-----------------------------------------------------------
	 SCS Same-Spin Scale       =       0.3333333333333333 [-]
	 SCS Opposite-Spin Scale   =       1.2000000000000000 [-]
	 SCS Same-Spin Energy      =      -0.0415601597448641 [Eh]
	 SCS Opposite-Spin Energy  =      -0.5070072156173281 [Eh]
	 SCS Correlation Energy    =      -0.5485673753621922 [Eh]
	 SCS Total Energy          =    -157.8447814223993362 [Eh]
	-----------------------------------------------------------

  -Total Gradient:
     Atom            X                  Y                   Z
    ------   -----------------  -----------------  -----------------
       1       -0.000015855571    -0.000006298392     0.000001026982
       2       -0.000003880782     0.000007805802     0.000002994380
       3        0.000003671516    -0.000000715550    -0.000003652755
       4       -0.000168939367    -0.000079150295     0.000582586542
       5        0.000034024693     0.000000985562     0.000005785303
       6       -0.000020320927     0.000001600316    -0.000002800238
       7        0.000083975508     0.000037924104    -0.000993376417
       8       -0.000010377583    -0.000014271541     0.000010509936
       9        0.000019331509     0.000021246430    -0.000019204045
      10        0.000484276965     0.000197236204     0.000849379215
      11        0.000001628209    -0.000009002952    -0.000002234935
      12       -0.000014440523    -0.000006199443     0.000006785531
      13        0.000003201669     0.000003424634     0.000001622331
      14       -0.000396295315    -0.000154584879    -0.000439421830

  **** Optimization is complete! (in 8 steps) ****
    Final optimized geometry and variables:
    Molecular point group: c1

    Geometry (in Angstrom), charge = 0, multiplicity = 1:

    H           -1.836034662865     0.488610077777     0.199063709967
    H           -1.540244814416     2.056507940699    -0.551480761369
    H           -1.364236221635     0.576617312301    -1.502454634275
    C           -1.199962172674     1.017892204329    -0.514164359048
    H            0.858630722765     1.577736580652    -0.795634408419
    H            0.403650833288     1.352950767986     0.884213640414
    C            0.272743711129     0.939636864008    -0.123827095727
    H            0.793856530334    -0.857460720474    -1.187349480181
    H            1.914584859221    -0.430266790990     0.093626755561
    C            0.849073175465    -0.475464824230    -0.160148669246
    H            0.650204390495    -2.424778765910     0.776787820199
    H           -0.890876649427    -1.616920035848     0.491223847757
    H            0.157514188649    -1.075918735181     1.807921666273
    C            0.149780718676    -1.452423910953     0.780006147153

*** Psi4 exiting successfully. Buy a developer a beer!
