                              Psi4 1.0.0 Driver

  ==> Input File <==

--------------------------------------------------------------------------

memory 1000 mb

molecule butane {
  symmetry C1
  0 1
  H      1.604   0.760   -8.260
  H      1.745   2.388   -8.880
  H      2.043   1.024   -9.930
  C      2.142   1.395   -8.932
  H      4.169   2.051   -9.210
  H      3.731   1.788   -7.539
  C      3.631   1.416   -8.537
  H      4.105   -0.383   -9.610
  H      5.237   0.003   -8.338
  C      4.203   -0.012   -8.612
  H      3.827   -1.919   -7.698
  H      2.395   -0.942   -7.919
  H      3.528   -0.556   -6.646
  C      3.429   -0.927   -7.645
  units Angstrom
}

dih_string = "4 7 10 14 300"
set optking fixed_dihedral = $dih_string

optimize('MP2/6-31G(d)')
--------------------------------------------------------------------------

    Molecular point group: c1
  Charge       = 0
  Multiplicity = 1
  Basis Set: 6-31G(D)
  Basis Set:
  @DF-RHF Final Energy:  -157.28967579041495
    Total Energy =                       -157.2896757904149467
  Basis Set:
    Molecular point group: c1
  Basis Set: 6-31G(D)
  Basis Set:
  Basis Set:
	 Reference Energy          =    -157.2896757904149467 [Eh]
	 Singles Energy            =      -0.0000000000000000 [Eh]
	 Same-Spin Energy          =      -0.1250566190944387 [Eh]
	 Opposite-Spin Energy      =      -0.4208604994791177 [Eh]
	 Correlation Energy        =      -0.5459171185735565 [Eh]
	 Total Energy              =    -157.8355929089885024 [Eh]
	 SCS Total Energy          =    -157.8363939294880254 [Eh]
  Basis Set: 6-31G(D)
  Basis Set:
  @DF-RHF Final Energy:  -157.29420484991539
    Total Energy =                       -157.2942048499153032
  Basis Set:
  Basis Set: 6-31G(D)
  Basis Set:
  @DF-RHF Final Energy:  -157.29540060380486
    Total Energy =                       -157.2954006038049215
  @DF-RHF Final Energy:  -157.29609621709614
    Total Energy =                       -157.2960962170961352
  @DF-RHF Final Energy:  -157.29618895582536
    Total Energy =                       -157.2961889558253006
  @DF-RHF Final Energy:  -157.29622001636125
    Total Energy =                       -157.2962200163612181
  @DF-RHF Final Energy:  -157.29621641375908
    Total Energy =                       -157.2962164137591685
	 Singles Energy            =      -0.0000000000000000 [Eh]
	 Same-Spin Energy          =      -0.1246795691605251 [Eh]
	 Opposite-Spin Energy      =      -0.4225057281973638 [Eh]
	 Correlation Energy        =      -0.5471852973578888 [Eh]
	 Total Energy              =    -157.8434017111169680 [Eh]
	 SCS Total Energy          =    -157.8447831439827667 [Eh]
  Charge       = 0
  Multiplicity = 1
  Basis Set: 6-31G(D)
  Basis Set:

    Orbital Energies (a.u.)
    -----------------------

    Doubly Occupied:

       1A    -11.216017     2A    -11.215422     3A    -11.209730
       4A    -11.209727     5A     -1.070497     6A     -0.974684
       7A     -0.872843     8A     -0.773611     9A     -0.624481
      10A     -0.618920    11A     -0.572081    12A     -0.532880
      13A     -0.531174    14A     -0.502716    15A     -0.459899
      16A     -0.458478    17A     -0.456281

  @DF-RHF Final Energy:  -157.29621404710002

   => Energetics <=

    Nuclear Repulsion Energy =            132.7924444022315242
    One-Electron Energy =                -473.5784338674932314
    Two-Electron Energy =                 183.4897754181614857
    DFT Exchange-Correlation Energy =       0.0000000000000000
    Empirical Dispersion Energy =           0.0000000000000000
    PCM Polarization Energy =               0.0000000000000000
    EFP Energy =                            0.0000000000000000
    Total Energy =                       -157.2962140471002215
  Basis Set:
    Molecular point group: c1
  Basis Set: 6-31G(D)
  Basis Set:
  Basis Set:
	 Reference Energy          =    -157.2962140471000225 [Eh]
	 Singles Energy            =      -0.0000000000000000 [Eh]
	 Same-Spin Energy          =      -0.1246804792168662 [Eh]
	 Opposite-Spin Energy      =      -0.4225060129508191 [Eh]
	 Correlation Energy        =      -0.5471864921676852 [Eh]
	 Total Energy              =    -157.8434005392677193 [Eh]

	 ================> DF-SCS-MP2 Energies <==================
	-----------------------------------------------------------
	 SCS Same-Spin Scale       =       0.3333333333333333 [-]
	 SCS Opposite-Spin Scale   =       1.2000000000000000 [-]
	 SCS Same-Spin Energy      =      -0.0415601597389554 [Eh]
	 SCS Opposite-Spin Energy  =      -0.5070072155409828 [Eh]
	 SCS Correlation Energy    =      -0.5485673752799383 [Eh]
	 SCS Total Energy          =    -157.8447814223799526 [Eh]
	-----------------------------------------------------------

  -Total Gradient:
     Atom            X                  Y                   Z
    ------   -----------------  -----------------  -----------------
       1       -0.000015855171    -0.000006297903     0.000001026567
       2       -0.000003880462     0.000007805179     0.000002994464
       3        0.000003671658    -0.000000715291    -0.000003652262
       4       -0.000168940171    -0.000079150202     0.000582585991
       5        0.000034023959     0.000000985001     0.000005785355
       6       -0.000020320981     0.000001600213    -0.000002800738
       7        0.000083976076     0.000037925412    -0.000993375060
       8       -0.000010377493    -0.000014271222     0.000010510767
       9        0.000019330006     0.000021246341    -0.000019203895
      10        0.000484278376     0.000197235352     0.000849377324
      11        0.000001628024    -0.000009002219    -0.000002235032
      12       -0.000014439894    -0.000006199547     0.000006785716
      13        0.000003201700     0.000003424362     0.000001621677
      14       -0.000396295627    -0.000154585475    -0.000439420872

  **** Optimization is complete! (in 8 steps) ****
    Final optimized geometry and variables:
    Molecular point group: c1

    Geometry (in Angstrom), charge = 0, multiplicity = 1:

    H           -1.836034661120     0.488610089985     0.199063719309
    H           -1.540244808281     2.056507941637    -0.551480772219
    H           -1.364236225406     0.576617301202    -1.502454627852
    C           -1.199962171718     1.017892204401    -0.514164358792
    H            0.858630719708     1.577736572647    -0.795634424717
    H            0.403650842923     1.352950776294     0.884213630673
    C            0.272743713466     0.939636863926    -0.123827100594
    H            0.793856533808    -0.857460726489    -1.187349477905
    H            1.914584855934    -0.430266794406     0.093626762924
    C            0.849073175159    -0.475464826976    -0.160148668905
    H            0.650204392755    -2.424778759867     0.776787835068
    H           -0.890876649371    -1.616920041581     0.491223846685
    H            0.157514177954    -1.075918723874     1.807921666409
    C            0.149780715479    -1.452423908578     0.780006151217

*** Psi4 exiting successfully. Buy a developer a beer!
