                               Psi4 1.1 release

  ==> Input File <==

--------------------------------------------------------------------------

memory 5 Gb

molecule phepyrFOH_cation {
  symmetry C1
  1 1
  C      1.885   -1.036   -0.112
  C      0.807   -0.463   0.561
  C      5.298   -2.251   0.495
  C      3.853   -2.770   -1.362
  C      1.800   -1.079   2.676
  C      6.350   -2.826   -0.203
  C      4.943   -3.333   -2.012
  C      2.921   -1.631   0.608
  C      4.038   -2.225   -0.095
  C      0.764   -0.484   1.955
  C      2.878   -1.652   2.002
  N      6.145   -3.344   -1.421
  O      -0.289   0.076   2.612
  F      3.866   -2.220   2.709
  H      1.904   -1.012   -1.199
  H      0.002   -0.002   -0.006
  H      5.470   -1.833   1.482
  H      2.882   -2.763   -1.846
  H      1.772   -1.099   3.762
  H      7.361   -2.891   0.177
  H      4.893   -3.779   -2.996
  H      6.932   -3.761   -1.917
  H      -0.175   -0.018   3.571
  units Angstrom
}

dih_string = "1 8 9 3 150"
set optking fixed_dihedral = $dih_string

optimize('MP2/aug-cc-PVTZ')
--------------------------------------------------------------------------

    Molecular point group: c1
  Charge       = 1
  Multiplicity = 1
  Basis Set: AUG-CC-PVTZ
    Blend: AUG-CC-PVTZ
  Basis Set: (AUG-CC-PVTZ AUX)
    Blend: AUG-CC-PVTZ-JKFIT
  @DF-RHF Final Energy:  -650.55997116889944
    Total Energy =                       -650.5599711688994375
  Basis Set: (AUG-CC-PVTZ AUX)
    Blend: AUG-CC-PVTZ-RI
    Molecular point group: c1
  Basis Set: AUG-CC-PVTZ
    Blend: AUG-CC-PVTZ
  Basis Set: (AUG-CC-PVTZ AUX)
    Blend: AUG-CC-PVTZ-JKFIT
  Basis Set: (AUG-CC-PVTZ AUX)
    Blend: AUG-CC-PVTZ-JKFIT
	 Reference Energy          =    -650.5599711688994375 [Eh]
	 Singles Energy            =      -0.0000000000000001 [Eh]
	 Same-Spin Energy          =      -0.6701441035267264 [Eh]
	 Opposite-Spin Energy      =      -2.0152956054740865 [Eh]
	 Correlation Energy        =      -2.6854397090008129 [Eh]
	 Total Energy              =    -653.2454108779002127 [Eh]
	 SCS Total Energy          =    -653.2017072633105954 [Eh]
  @DF-RHF Final Energy:  -650.56665291430647
    Total Energy =                       -650.5666529143065873
  @DF-RHF Final Energy:  -650.56931094585173
    Total Energy =                       -650.5693109458516119
  @DF-RHF Final Energy:  -650.56988704306184
    Total Energy =                       -650.5698870430619536
  @DF-RHF Final Energy:  -650.56999357498648
    Total Energy =                       -650.5699935749864835
  @DF-RHF Final Energy:  -650.57005262691723
    Total Energy =                       -650.5700526269172315
  Charge       = 1
  Multiplicity = 1
  Basis Set: AUG-CC-PVTZ
    Blend: AUG-CC-PVTZ
  Basis Set: (AUG-CC-PVTZ AUX)
    Blend: AUG-CC-PVTZ-JKFIT

    Orbital Energies (a.u.)
    -----------------------

    Doubly Occupied:

       1A    -26.447101     2A    -20.718256     3A    -15.829097
       4A    -11.479959     5A    -11.478195     6A    -11.475622
       7A    -11.453889     8A    -11.449167     9A    -11.411443
      10A    -11.408112    11A    -11.387852    12A    -11.381839
      13A    -11.362797    14A    -11.353567    15A     -1.767208
      16A     -1.541982    17A     -1.507437    18A     -1.323629
      19A     -1.275853    20A     -1.237572    21A     -1.170807
      22A     -1.161655    23A     -1.065630    24A     -1.062828
      25A     -0.998522    26A     -0.973774    27A     -0.959673
      28A     -0.902176    29A     -0.872675    30A     -0.864470
      31A     -0.855646    32A     -0.834114    33A     -0.819478
      34A     -0.806987    35A     -0.790508    36A     -0.772733
      37A     -0.768155    38A     -0.753269    39A     -0.730472
      40A     -0.720863    41A     -0.708639    42A     -0.691711
      43A     -0.667402    44A     -0.647665    45A     -0.638440
      46A     -0.574239    47A     -0.537870    48A     -0.480317
      49A     -0.446194

  @DF-RHF Final Energy:  -650.57008687070038

   => Energetics <=

    Nuclear Repulsion Energy =            831.2286632975028624
    One-Electron Energy =               -2522.4625228359000175
    Two-Electron Energy =                1040.6637726676967759
    DFT Exchange-Correlation Energy =       0.0000000000000000
    Empirical Dispersion Energy =           0.0000000000000000
    PCM Polarization Energy =               0.0000000000000000
    EFP Energy =                            0.0000000000000000
    Total Energy =                       -650.5700868707003792
  Basis Set: (AUG-CC-PVTZ AUX)
    Blend: AUG-CC-PVTZ-RI
    Molecular point group: c1
  Basis Set: AUG-CC-PVTZ
    Blend: AUG-CC-PVTZ
  Basis Set: (AUG-CC-PVTZ AUX)
    Blend: AUG-CC-PVTZ-JKFIT
  Basis Set: (AUG-CC-PVTZ AUX)
    Blend: AUG-CC-PVTZ-JKFIT
	 Reference Energy          =    -650.5700868707003792 [Eh]
	 Singles Energy            =      -0.0000000000000004 [Eh]
	 Same-Spin Energy          =      -0.6687590069458311 [Eh]
	 Opposite-Spin Energy      =      -2.0123545267861074 [Eh]
	 Correlation Energy        =      -2.6811135337319389 [Eh]
	 Total Energy              =    -653.2512004044323248 [Eh]

	 ================> DF-SCS-MP2 Energies <==================
	-----------------------------------------------------------
	 SCS Same-Spin Scale       =       0.3333333333333333 [-]
	 SCS Opposite-Spin Scale   =       1.2000000000000000 [-]
	 SCS Same-Spin Energy      =      -0.2229196689819437 [Eh]
	 SCS Opposite-Spin Energy  =      -2.4148254321433287 [Eh]
	 SCS Correlation Energy    =      -2.6377451011252728 [Eh]
	 SCS Total Energy          =    -653.2078319718256125 [Eh]
	-----------------------------------------------------------

  -Total Gradient:
     Atom            X                  Y                   Z
    ------   -----------------  -----------------  -----------------
       1       -0.000047062190    -0.000047541835    -0.000021975071
       2        0.000037315527    -0.000017468092    -0.000017177189
       3       -0.000027929470    -0.000040756290     0.000015547078
       4       -0.000007241515    -0.000027821981    -0.000015001487
       5       -0.000006410255     0.000028977528     0.000040589000
       6       -0.000004108653    -0.000014804521    -0.000029849810
       7        0.000012143217     0.000018387561     0.000005920579
       8        0.000045733831     0.000078675578     0.000013106265
       9        0.000021738383     0.000076811237     0.000016313779
      10        0.000017648725     0.000025640449    -0.000012479582
      11       -0.000117635839    -0.000107936650    -0.000095607881
      12        0.000004561174    -0.000001218178     0.000005947029
      13       -0.000021003124    -0.000001796500     0.000008661579
      14        0.000079670061     0.000018354346     0.000043659987
      15        0.000007792509    -0.000001058183     0.000011728206
      16       -0.000013988527     0.000012974017     0.000018422040
      17        0.000004357066    -0.000001826710     0.000001723251
      18        0.000004080062    -0.000000893043     0.000005278454
      19        0.000009818242     0.000000129397    -0.000000534294
      20        0.000000370427     0.000006203184     0.000003365414
      21       -0.000001234597     0.000002996671    -0.000000636116
      22        0.000000477206    -0.000008763153     0.000004391879
      23        0.000000907725     0.000002735175    -0.000001393115

  **** Optimization is complete! (in 7 steps) ****
    Final optimized geometry and variables:
    Molecular point group: c1

    Geometry (in Angstrom), charge = 1, multiplicity = 1:

    C           -1.331882469907     0.757042692407    -0.756888879752
    C           -2.405203614723     1.332411212076    -0.119824265021
    C            2.131833485564    -0.479882787437    -0.193287957589
    C            0.671481105731    -0.982472737899    -2.016348391831
    C           -1.452606386770     0.731290651322     2.009828414461
    C            3.168611872045    -1.037828197190    -0.898657882109
    C            1.729086545973    -1.534102037371    -2.693496713943
    C           -0.278209869860     0.163531709898    -0.045633043823
    C            0.840506104226    -0.432613606740    -0.737938598314
    C           -2.474167063379     1.318666789134     1.273045630367
    C           -0.384224164942     0.179516285880     1.344293198095
    N            2.943398211504    -1.547665412665    -2.120161285625
    O           -3.550469893782     1.890079331889     1.833050208920
    F            0.571443185565    -0.409412846815     2.083671936702
    H           -1.281038385926     0.808459140419    -1.833670136453
    H           -3.197140369686     1.805887343744    -0.677059017840
    H            2.340027771568    -0.062255879952     0.775676204125
    H           -0.300869292554    -1.010891640312    -2.479435965173
    H           -1.476797962226     0.688284114212     3.087746446044
    H            4.178883883181    -1.086899733025    -0.528198402008
    H            1.644846231498    -1.977755233265    -3.671417670413
    H            3.716539240059    -1.960289092411    -2.625976375998
    H           -3.507391929255     1.834864112224     2.794451553582

*** Psi4 exiting successfully. Buy a developer a beer!
