                               Psi4 1.1 release

  ==> Input File <==

--------------------------------------------------------------------------

molecule phepyr {
  symmetry C1
  0 1
  C      1.885   -1.036   -0.112
  C      0.807   -0.463   0.561
  C      2.921   -1.631   0.608
  C      0.764   -0.484   1.955
  C      2.878   -1.652   2.002
  C      0.567   -0.822   4.788
  C      2.900   -1.401   4.851
  C      0.576   -0.858   6.173
  C      2.805   -1.411   6.233
  C      1.800   -1.079   2.676
  C      1.755   -1.100   4.122
  N      1.668   -1.146   6.915
  H      1.917   -1.021   -1.198
  H      -0.001   -0.002   0.000
  H      3.760   -2.079   0.084
  H      -0.084   -0.033   2.466
  H      3.693   -2.120   2.550
  H      -0.348   -0.584   4.253
  H      3.845   -1.623   4.365
  H      -0.326   -0.650   6.739
  H      3.669   -1.638   6.847
  units Angstrom
}

dih_string = "4 10 11 6 15"
set optking fixed_dihedral = $dih_string

optimize('MP2/aug-cc-PVTZ')
--------------------------------------------------------------------------

    Molecular point group: c1
  Charge       = 0
  Multiplicity = 1
  Basis Set: AUG-CC-PVTZ
    Blend: AUG-CC-PVTZ
  Basis Set: (AUG-CC-PVTZ AUX)
    Blend: AUG-CC-PVTZ-JKFIT
  @DF-RHF Final Energy:  -476.39161535638891
    Total Energy =                       -476.3916153563889111
  Basis Set: (AUG-CC-PVTZ AUX)
    Blend: AUG-CC-PVTZ-RI
    Molecular point group: c1
  Basis Set: AUG-CC-PVTZ
    Blend: AUG-CC-PVTZ
  Basis Set: (AUG-CC-PVTZ AUX)
    Blend: AUG-CC-PVTZ-JKFIT
  Basis Set: (AUG-CC-PVTZ AUX)
    Blend: AUG-CC-PVTZ-JKFIT
	 Reference Energy          =    -476.3916153563889111 [Eh]
	 Singles Energy            =      -0.0000000000000001 [Eh]
	 Same-Spin Energy          =      -0.5358407360625133 [Eh]
	 Opposite-Spin Energy      =      -1.6446827301736755 [Eh]
	 Correlation Energy        =      -2.1805234662361888 [Eh]
	 Total Energy              =    -478.5721388226251065 [Eh]
	 SCS Total Energy          =    -478.5438482112848533 [Eh]
  @DF-RHF Final Energy:  -476.39821736300507
    Total Energy =                       -476.3982173630050738
    Molecular point group: c1
  Charge       = 0
  Multiplicity = 1
  Basis Set: AUG-CC-PVTZ
    Blend: AUG-CC-PVTZ
  Basis Set: (AUG-CC-PVTZ AUX)
    Blend: AUG-CC-PVTZ-JKFIT

    Orbital Energies (a.u.)
    -----------------------

    Doubly Occupied:

       1A    -15.561330     2A    -11.271981     3A    -11.271964
       4A    -11.268231     5A    -11.255667     6A    -11.245237
       7A    -11.245201     8A    -11.244411     9A    -11.243232
      10A    -11.242664    11A    -11.236989    12A    -11.236940
      13A     -1.258677    14A     -1.176230    15A     -1.108400
      16A     -1.038453    17A     -1.026218    18A     -1.019870
      19A     -0.882839    20A     -0.870332    21A     -0.827081
      22A     -0.810711    23A     -0.737876    24A     -0.685518
      25A     -0.674504    26A     -0.665714    27A     -0.630496
      28A     -0.623050    29A     -0.608406    30A     -0.588020
      31A     -0.584019    32A     -0.552072    33A     -0.528492
      34A     -0.516109    35A     -0.512278    36A     -0.493363
      37A     -0.418501    38A     -0.411287    39A     -0.352408
      40A     -0.346077    41A     -0.320272

  @DF-RHF Final Energy:  -476.39979625199879

   => Energetics <=

    Nuclear Repulsion Energy =            605.9581245913115026
    One-Electron Energy =               -1845.5336052043053314
    Two-Electron Energy =                 763.1756843609950920
    DFT Exchange-Correlation Energy =       0.0000000000000000
    Empirical Dispersion Energy =           0.0000000000000000
    PCM Polarization Energy =               0.0000000000000000
    EFP Energy =                            0.0000000000000000
    Total Energy =                       -476.3997962519988505
  Basis Set: (AUG-CC-PVTZ AUX)
    Blend: AUG-CC-PVTZ-RI
    Molecular point group: c1

    Geometry (in Angstrom), charge = 0, multiplicity = 1:

       Center              X                  Y                   Z               Mass
    ------------   -----------------  -----------------  -----------------  -----------------
           C          0.109278604361     0.056323193661    -3.562211262154    12.000000000000
           C         -0.953403482216     0.636445383076    -2.884371200367    12.000000000000
           C          1.128992026391    -0.547321810773    -2.840315963796    12.000000000000
           C         -0.993896848809     0.612931079296    -1.499104658921    12.000000000000
           C          1.086337225187    -0.566590616516    -1.455037682473    12.000000000000
           C         -1.195067681046     0.247862844627     1.414405303101    12.000000000000
           C          1.106312518026    -0.293393890648     1.479001207607    12.000000000000
           C         -1.192066184530     0.214184316464     2.798765591175    12.000000000000
           C          1.016157888179    -0.301709325210     2.860688152941    12.000000000000
           C          0.027252224403     0.016552322200    -0.758172147943    12.000000000000
           C         -0.022442244705    -0.016760700823     0.710620235045    12.000000000000
           N         -0.110529903016    -0.055522296308     3.533933387455    14.003074004780
           H          0.141323828916     0.072639883413    -4.640819756138     1.007825032070
           H         -1.750270607858     1.112934476281    -3.434588438028     1.007825032070
           H          1.955795523215    -1.010841971220    -3.356339354337     1.007825032070
           H         -1.822793731433     1.084956830222    -0.996437215184     1.007825032070
           H          1.881214128361    -1.059771013326    -0.918578399024     1.007825032070
           H         -2.118092568042     0.460766207758     0.900461179097     1.007825032070
           H          2.061334069705    -0.485490710421     1.017675487167     1.007825032070
           H         -2.103404964901     0.408792177117     3.347578065652     1.007825032070
           H          1.892130314770    -0.509360545598     3.460066122480     1.007825032070

  Basis Set: AUG-CC-PVTZ
    Blend: AUG-CC-PVTZ
  Basis Set: (AUG-CC-PVTZ AUX)
    Blend: AUG-CC-PVTZ-JKFIT
  Basis Set: (AUG-CC-PVTZ AUX)
    Blend: AUG-CC-PVTZ-JKFIT
	 Reference Energy          =    -476.3997962519987937 [Eh]
	 Singles Energy            =      -0.0000000000000001 [Eh]
	 Same-Spin Energy          =      -0.5345173496432896 [Eh]
	 Opposite-Spin Energy      =      -1.6417753718323960 [Eh]
	 Correlation Energy        =      -2.1762927214756855 [Eh]
	 Total Energy              =    -478.5760889734744978 [Eh]

	 ================> DF-SCS-MP2 Energies <==================
	-----------------------------------------------------------
	 SCS Same-Spin Scale       =       0.3333333333333333 [-]
	 SCS Opposite-Spin Scale   =       1.2000000000000000 [-]
	 SCS Same-Spin Energy      =      -0.1781724498810965 [Eh]
	 SCS Opposite-Spin Energy  =      -1.9701304461988751 [Eh]
	 SCS Correlation Energy    =      -2.1483028960799717 [Eh]
	 SCS Total Energy          =    -478.5480991480787907 [Eh]
	-----------------------------------------------------------

  -Total Gradient:
     Atom            X                  Y                   Z
    ------   -----------------  -----------------  -----------------
       1       -0.000049594524    -0.000028485639     0.000342688662
       2        0.000144043730     0.000111563872    -0.000063582856
       3       -0.000051466249    -0.000021320546    -0.000062412047
       4       -0.000415016255    -0.001311377812     0.000652844576
       5       -0.000349570034     0.000205381861     0.000601375874
       6       -0.000118048985     0.001281669392    -0.000437421901
       7        0.000400574963    -0.000186472067    -0.000218911517
       8       -0.000279211926     0.000306657334    -0.001095064474
       9        0.000423166873    -0.000230262690    -0.001220003396
      10        0.001174091086     0.002148309391    -0.001814714089
      11       -0.000861741202    -0.002231797150     0.002454378646
      12       -0.000096196303    -0.000060868790     0.000555018568
      13       -0.000019651786    -0.000028117424    -0.000019798692
      14        0.000048759408     0.000019287112    -0.000066559125
      15       -0.000030692204     0.000017064387    -0.000060469763
      16       -0.000270516648    -0.000294753837    -0.000172184741
      17        0.000282382241     0.000215188941    -0.000201720000
      18        0.000330304312     0.000336973496    -0.000001243446
      19       -0.000254342020    -0.000261578479    -0.000021939205
      20       -0.000005309841    -0.000162861761     0.000401887706
      21       -0.000001964633     0.000175800408     0.000447831220

*** Psi4 exiting successfully. Buy a developer a beer!
