                               Psi4 1.1 release

  ==> Input File <==

--------------------------------------------------------------------------

memory 8 Gb

molecule phepyr {
  symmetry C1
  0 1
  C      1.885   -1.036   -0.112
  C      0.807   -0.463   0.561
  C      2.921   -1.631   0.608
  C      0.764   -0.484   1.955
  C      2.878   -1.652   2.002
  C      0.567   -0.822   4.788
  C      2.900   -1.401   4.851
  C      0.576   -0.858   6.173
  C      2.805   -1.411   6.233
  C      1.800   -1.079   2.676
  C      1.755   -1.100   4.122
  N      1.668   -1.146   6.915
  H      1.917   -1.021   -1.198
  H      -0.001   -0.002   0.000
  H      3.760   -2.079   0.084
  H      -0.084   -0.033   2.466
  H      3.693   -2.120   2.550
  H      -0.348   -0.584   4.253
  H      3.845   -1.623   4.365
  H      -0.326   -0.650   6.739
  H      3.669   -1.638   6.847
  units Angstrom
}

frozen_string = """
4 xyz
10 xyz
11 xyz
6 xyz
"""
set optking { opt_coordinates = cartesian
              frozen_cartesian = $frozen_string
              consecutive_backsteps = 2
              geom_maxiter = 250
              print_trajectory_xyz_file = True }

optimize('MP2/aug-cc-PVTZ')
--------------------------------------------------------------------------

    Molecular point group: c1
  Charge       = 0
  Multiplicity = 1
  Basis Set: AUG-CC-PVTZ
    Blend: AUG-CC-PVTZ
  Basis Set: (AUG-CC-PVTZ AUX)
    Blend: AUG-CC-PVTZ-JKFIT
  @DF-RHF Final Energy:  -476.39161534903769
    Total Energy =                       -476.3916153490376928
  Basis Set: (AUG-CC-PVTZ AUX)
    Blend: AUG-CC-PVTZ-RI
    Molecular point group: c1
  Basis Set: AUG-CC-PVTZ
    Blend: AUG-CC-PVTZ
  Basis Set: (AUG-CC-PVTZ AUX)
    Blend: AUG-CC-PVTZ-JKFIT
  Basis Set: (AUG-CC-PVTZ AUX)
    Blend: AUG-CC-PVTZ-JKFIT
	 Reference Energy          =    -476.3916153490376928 [Eh]
	 Singles Energy            =      -0.0000000000000001 [Eh]
	 Same-Spin Energy          =      -0.5358407359234975 [Eh]
	 Opposite-Spin Energy      =      -1.6446827293135238 [Eh]
	 Correlation Energy        =      -2.1805234652370213 [Eh]
	 Total Energy              =    -478.5721388142746946 [Eh]
	 SCS Total Energy          =    -478.5438482028550879 [Eh]
  @DF-RHF Final Energy:  -476.39687426806466
    Total Energy =                       -476.3968742680646073
  @DF-RHF Final Energy:  -476.39794046903666
    Total Energy =                       -476.3979404690367119
  @DF-RHF Final Energy:  -476.39801258582526
    Total Energy =                       -476.3980125858251995
  @DF-RHF Final Energy:  -476.39803279778511
    Total Energy =                       -476.3980327977850493
  @DF-RHF Final Energy:  -476.39805572730199
    Total Energy =                       -476.3980557273019940
  @DF-RHF Final Energy:  -476.39807203994945
    Total Energy =                       -476.3980720399493975
  @DF-RHF Final Energy:  -476.39808975117347
    Total Energy =                       -476.3980897511735293
  @DF-RHF Final Energy:  -476.39809268844613
    Total Energy =                       -476.3980926884461269
  Charge       = 0
  Multiplicity = 1
  Basis Set: AUG-CC-PVTZ
    Blend: AUG-CC-PVTZ
  Basis Set: (AUG-CC-PVTZ AUX)
    Blend: AUG-CC-PVTZ-JKFIT

    Orbital Energies (a.u.)
    -----------------------

    Doubly Occupied:

       1A    -15.560871     2A    -11.272025     3A    -11.271517
       4A    -11.265147     5A    -11.252956     6A    -11.245383
       7A    -11.244713     8A    -11.244178     9A    -11.243223
      10A    -11.242601    11A    -11.237095    12A    -11.235259
      13A     -1.258623    14A     -1.177754    15A     -1.110299
      16A     -1.038828    17A     -1.025944    18A     -1.019312
      19A     -0.884975    20A     -0.871731    21A     -0.826389
      22A     -0.809938    23A     -0.738964    24A     -0.685737
      25A     -0.675391    26A     -0.666368    27A     -0.630155
      28A     -0.622192    29A     -0.609180    30A     -0.587903
      31A     -0.584360    32A     -0.552510    33A     -0.529838
      34A     -0.515678    35A     -0.512947    36A     -0.492939
      37A     -0.417998    38A     -0.412570    39A     -0.352326
      40A     -0.345815    41A     -0.318564

  @DF-RHF Final Energy:  -476.39809426866123

   => Energetics <=

    Nuclear Repulsion Energy =            607.5306396642417894
    One-Electron Energy =               -1848.6770718952482184
    Two-Electron Energy =                 764.7483379623452038
    DFT Exchange-Correlation Energy =       0.0000000000000000
    Empirical Dispersion Energy =           0.0000000000000000
    PCM Polarization Energy =               0.0000000000000000
    EFP Energy =                            0.0000000000000000
    Total Energy =                       -476.3980942686612252
  Basis Set: (AUG-CC-PVTZ AUX)
    Blend: AUG-CC-PVTZ-RI
    Molecular point group: c1
  Basis Set: AUG-CC-PVTZ
    Blend: AUG-CC-PVTZ
  Basis Set: (AUG-CC-PVTZ AUX)
    Blend: AUG-CC-PVTZ-JKFIT
  Basis Set: (AUG-CC-PVTZ AUX)
    Blend: AUG-CC-PVTZ-JKFIT
	 Reference Energy          =    -476.3980942686612252 [Eh]
	 Singles Energy            =      -0.0000000000000002 [Eh]
	 Same-Spin Energy          =      -0.5349744892885011 [Eh]
	 Opposite-Spin Energy      =      -1.6422124252425345 [Eh]
	 Correlation Energy        =      -2.1771869145310356 [Eh]
	 Total Energy              =    -478.5752811831922600 [Eh]

	 ================> DF-SCS-MP2 Energies <==================
	-----------------------------------------------------------
	 SCS Same-Spin Scale       =       0.3333333333333333 [-]
	 SCS Opposite-Spin Scale   =       1.2000000000000000 [-]
	 SCS Same-Spin Energy      =      -0.1783248297628337 [Eh]
	 SCS Opposite-Spin Energy  =      -1.9706549102910413 [Eh]
	 SCS Correlation Energy    =      -2.1489797400538748 [Eh]
	 SCS Total Energy          =    -478.5470740087150716 [Eh]
	-----------------------------------------------------------

  -Total Gradient:
     Atom            X                  Y                   Z
    ------   -----------------  -----------------  -----------------
       1        0.000018128640     0.000028941215    -0.000000687111
       2        0.000014018690     0.000020822822    -0.000002588385
       3        0.000023315290     0.000050672280    -0.000003356722
       4       -0.002541891742    -0.002164225111     0.006271073790
       5        0.000002455915     0.000011843380     0.000008141805
       6        0.001293762002     0.002921856078    -0.009142715865
       7       -0.000010304541    -0.000024998498    -0.000007447847
       8       -0.000003380685    -0.000013808431    -0.000005048808
       9       -0.000006072773    -0.000042195467    -0.000012148570
      10        0.000468408033     0.002404367772     0.010671833565
      11        0.000697140571    -0.003178418764    -0.007782313986
      12       -0.000005756682    -0.000054265950     0.000009449523
      13        0.000030472369     0.000059099485    -0.000002744802
      14        0.000007475702     0.000019495040     0.000003408688
      15        0.000030648044     0.000056148486     0.000000111732
      16       -0.000021233914    -0.000011867218     0.000000960030
      17        0.000021391317     0.000020984410    -0.000007311193
      18       -0.000006261125     0.000021748432     0.000004868045
      19       -0.000002623935    -0.000031746475     0.000000098070
      20       -0.000000203341    -0.000024135578    -0.000000976281
      21       -0.000009487833    -0.000070317910    -0.000002605689

  **** Optimization is complete! (in 10 steps) ****
    Final optimized geometry and variables:
    Molecular point group: c1

    Geometry (in Angstrom), charge = 0, multiplicity = 1:

    C            1.833029944889    -1.047900060770    -0.126507924183
    C            0.781257925967    -0.466763233888     0.568740448328
    C            2.866586622389    -1.649353849380     0.578142738002
    C            0.764000000000    -0.484000000000     1.955000000000
    C            2.846681268320    -1.666411676674     1.963776688088
    C            0.567000000000    -0.822000000000     4.788000000000
    C            2.867548858717    -1.359966333451     4.918139665107
    C            0.539097989128    -0.827373952656     6.173763355272
    C            2.744692375623    -1.344090670417     6.297782783013
    C            1.800000000000    -1.079000000000     2.676000000000
    C            1.755000000000    -1.100000000000     4.122000000000
    N            1.603212068294    -1.082765384373     6.938740711661
    H            1.847158828785    -1.031719283441    -1.205512935657
    H           -0.023268595911     0.010627704702     0.030405395427
    H            3.685125975346    -2.112369955726     0.048698755291
    H           -0.046166591728     0.007896491518     2.465916499095
    H            3.645626516178    -2.160781651607     2.494168332689
    H           -0.350583262294    -0.638173389310     4.255853559463
    H            3.833075987823    -1.556029855022     4.479028440961
    H           -0.384901003343    -0.620303854843     6.695928704421
    H            3.606377288043    -1.546789981956     6.918610550870

*** Psi4 exiting successfully. Buy a developer a beer!
