                              Psi4 1.0.0 Driver

  ==> Input File <==

--------------------------------------------------------------------------
# Optimize Butane

memory 1000 mb

molecule c4h10 {
  0 1
  H  -5.012   2.073  -0.936
  H  -6.027   3.076   0.114
  H  -4.918   1.892   0.827
  C  -5.039   2.615   0.015
  H  -4.038   4.233   1.009
  H  -4.117   4.397  -0.747
  C  -3.955   3.679   0.066
  H  -2.482   2.500  -0.989
  H  -2.396   2.357   0.768
  C  -2.562   3.065  -0.053
  H  -1.592   4.831  -0.853
  H  -0.489   3.668  -0.098
  H  -1.515   4.699   0.915
  C  -1.478   4.131  -0.020
}

set basis cc-pVDZ
optimize('b3lyp')
--------------------------------------------------------------------------

    Molecular point group: c1
  Charge       = 0
  Multiplicity = 1
  Basis Set: CC-PVDZ
   => B3LYP Composite Functional <=
  Basis Set:
  @DF-RKS Final Energy:  -158.45754898502219
    Total Energy =                       -158.4575489850221857
    Molecular point group: c1
  Basis Set: CC-PVDZ
  Basis Set:
   => B3LYP Composite Functional <=
  Basis Set: CC-PVDZ
   => B3LYP Composite Functional <=
  Basis Set:
  @DF-RKS Final Energy:  -158.45880819985743
    Total Energy =                       -158.4588081998574296
  Basis Set: CC-PVDZ
  Basis Set:
   => B3LYP Composite Functional <=
  Basis Set: CC-PVDZ
   => B3LYP Composite Functional <=
  Basis Set:
  @DF-RKS Final Energy:  -158.45888493109570
    Total Energy =                       -158.4588849310956959
  Basis Set: CC-PVDZ
  Basis Set:
   => B3LYP Composite Functional <=
  Basis Set: CC-PVDZ
   => B3LYP Composite Functional <=
  Basis Set:
  @DF-RKS Final Energy:  -158.45888769289047
    Total Energy =                       -158.4588876928904710
  Basis Set: CC-PVDZ
  Basis Set:
   => B3LYP Composite Functional <=
  Charge       = 0
  Multiplicity = 1
  Basis Set: CC-PVDZ
   => B3LYP Composite Functional <=
  Basis Set:

    Orbital Energies (a.u.)
    -----------------------

    Doubly Occupied:

       1A    -10.180276     2A    -10.180108     3A    -10.175896
       4A    -10.175889     5A     -0.790740     6A     -0.720677
       7A     -0.627124     8A     -0.571991     9A     -0.463500
      10A     -0.422554    11A     -0.416292    12A     -0.406391
      13A     -0.365602    14A     -0.346667    15A     -0.332606
      16A     -0.320737    17A     -0.319372

  @DF-RKS Final Energy:  -158.45888786630931

   => Energetics <=

    Nuclear Repulsion Energy =            129.9391378549388207
    One-Electron Energy =                -468.3649198331521575
    Two-Electron Energy =                 200.5506349793135428
    DFT Exchange-Correlation Energy =     -20.5837408674095350
    Empirical Dispersion Energy =           0.0000000000000000
    PCM Polarization Energy =               0.0000000000000000
    EFP Energy =                            0.0000000000000000
    Total Energy =                       -158.4588878663093112
    Molecular point group: c1
  Basis Set: CC-PVDZ
  Basis Set:
   => B3LYP Composite Functional <=

  -Total Gradient:
     Atom            X                  Y                   Z
    ------   -----------------  -----------------  -----------------
       1        0.000007211862     0.000010653455     0.000019523807
       2        0.000007367041    -0.000016456977     0.000005065891
       3       -0.000005426576     0.000001563769    -0.000019351865
       4       -0.000010519643     0.000037505404     0.000027398887
       5        0.000001924575     0.000009005323    -0.000019376782
       6        0.000009679071    -0.000000211467     0.000006475415
       7        0.000011472061    -0.000094321288    -0.000025669225
       8       -0.000009537702    -0.000000684791     0.000007826161
       9       -0.000004141523    -0.000006499427    -0.000021084774
      10       -0.000012239033     0.000098377610    -0.000006302159
      11       -0.000003600852    -0.000014164633     0.000017765501
      12       -0.000004931768     0.000016120786     0.000006948139
      13        0.000003024780     0.000002496488    -0.000020275636
      14        0.000009712834    -0.000043373337     0.000020932858

  **** Optimization is complete! (in 5 steps) ****
    Final optimized geometry and variables:
    Molecular point group: c1

    Geometry (in Angstrom), charge = 0, multiplicity = 1:

    H           -1.781487710695    -1.339015245276    -0.924843604480
    H           -2.809655081231    -0.316498366521     0.106834552942
    H           -1.696171739547    -1.492504703619     0.844458676121
    C           -1.808280241011    -0.768304160325     0.019321692974
    H           -0.781385143240     0.870036270346     0.998325840230
    H           -0.865561341910     1.021940295457    -0.757790563119
    C           -0.705914797210     0.292313565545     0.058091534575
    H            0.782112955956    -0.867612327944    -1.001664537213
    H            0.864488252487    -1.023755932239     0.754159895630
    C            0.705817366890    -0.292132845559    -0.060119676721
    H            1.697771204799     1.493890140835    -0.841405738393
    H            2.809791237804     0.316266152249    -0.104120355409
    H            1.780184254006     1.337108071239     0.927741879375
    C            1.808370373970     0.768135672436    -0.017435993935

*** Psi4 exiting successfully. Buy a developer a beer!
