                               Psi4 1.1 release

  ==> Input File <==

--------------------------------------------------------------------------

memory 5 Gb

molecule phepyrFOH_cation {
  symmetry C1
  1 1
  C      1.885   -1.036   -0.112
  C      0.807   -0.463   0.561
  C      4.634   -1.547   -1.154
  C      4.516   -3.474   0.287
  C      1.800   -1.079   2.676
  C      5.703   -2.141   -1.810
  C      5.588   -4.020   -0.406
  C      2.921   -1.631   0.608
  C      4.038   -2.225   -0.095
  C      0.764   -0.484   1.955
  C      2.878   -1.652   2.002
  N      6.144   -3.345   -1.422
  O      -0.289   0.076   2.612
  F      3.866   -2.220   2.709
  H      1.904   -1.012   -1.199
  H      0.002   -0.002   -0.006
  H      4.282   -0.571   -1.473
  H      4.070   -4.026   1.109
  H      1.772   -1.099   3.762
  H      6.227   -1.688   -2.640
  H      6.025   -4.982   -0.180
  H      6.930   -3.764   -1.918
  H      -0.175   -0.018   3.571
  units Angstrom
}

dih_string = "1 8 9 3 45"
set optking fixed_dihedral = $dih_string

optimize('MP2/aug-cc-PVTZ')
--------------------------------------------------------------------------

    Molecular point group: c1
  Charge       = 1
  Multiplicity = 1
  Basis Set: AUG-CC-PVTZ
    Blend: AUG-CC-PVTZ
  Basis Set: (AUG-CC-PVTZ AUX)
    Blend: AUG-CC-PVTZ-JKFIT
  @DF-RHF Final Energy:  -650.56160894489039
    Total Energy =                       -650.5616089448903949
  Basis Set: (AUG-CC-PVTZ AUX)
    Blend: AUG-CC-PVTZ-RI
    Molecular point group: c1
  Basis Set: AUG-CC-PVTZ
    Blend: AUG-CC-PVTZ
  Basis Set: (AUG-CC-PVTZ AUX)
    Blend: AUG-CC-PVTZ-JKFIT
  Basis Set: (AUG-CC-PVTZ AUX)
    Blend: AUG-CC-PVTZ-JKFIT
	 Reference Energy          =    -650.5616089448903949 [Eh]
	 Singles Energy            =      -0.0000000000000002 [Eh]
	 Same-Spin Energy          =      -0.6695506938091036 [Eh]
	 Opposite-Spin Energy      =      -2.0146285204305050 [Eh]
	 Correlation Energy        =      -2.6841792142396086 [Eh]
	 Total Energy              =    -653.2457881591300293 [Eh]
	 SCS Total Energy          =    -653.2023467340100069 [Eh]
  @DF-RHF Final Energy:  -650.56745259191302
    Total Energy =                       -650.5674525919130247
  @DF-RHF Final Energy:  -650.56915674228446
    Total Energy =                       -650.5691567422845765
  @DF-RHF Final Energy:  -650.56916622809126
    Total Energy =                       -650.5691662280912624
  @DF-RHF Final Energy:  -650.56913046922546
    Total Energy =                       -650.5691304692254562
  @DF-RHF Final Energy:  -650.56913286109989
    Total Energy =                       -650.5691328610998880
  @DF-RHF Final Energy:  -650.56913210279254
    Total Energy =                       -650.5691321027925369
  @DF-RHF Final Energy:  -650.56912702523607
    Total Energy =                       -650.5691270252359573
  @DF-RHF Final Energy:  -650.56908474798365
    Total Energy =                       -650.5690847479836521
  @DF-RHF Final Energy:  -650.56897822538235
    Total Energy =                       -650.5689782253823523
  @DF-RHF Final Energy:  -650.56909332030500
    Total Energy =                       -650.5690933203050008
  @DF-RHF Final Energy:  -650.56912253435587
    Total Energy =                       -650.5691225343559836
  @DF-RHF Final Energy:  -650.56911860502635
    Total Energy =                       -650.5691186050264605
  @DF-RHF Final Energy:  -650.56913850137585
    Total Energy =                       -650.5691385013758463
  @DF-RHF Final Energy:  -650.56842920980353
    Total Energy =                       -650.5684292098035257
  @DF-RHF Final Energy:  -650.56905440612570
    Total Energy =                       -650.5690544061258151
  @DF-RHF Final Energy:  -650.56911371509068
    Total Energy =                       -650.5691137150906798
  @DF-RHF Final Energy:  -650.56911900140756
    Total Energy =                       -650.5691190014076710
  Charge       = 1
  Multiplicity = 1
  Basis Set: AUG-CC-PVTZ
    Blend: AUG-CC-PVTZ
  Basis Set: (AUG-CC-PVTZ AUX)
    Blend: AUG-CC-PVTZ-JKFIT

    Orbital Energies (a.u.)
    -----------------------

    Doubly Occupied:

       1A    -26.444288     2A    -20.714461     3A    -15.833281
       4A    -11.482836     5A    -11.481018     6A    -11.471571
       7A    -11.453494     8A    -11.445053     9A    -11.413859
      10A    -11.411744    11A    -11.385545    12A    -11.379085
      13A    -11.361244    14A    -11.351386    15A     -1.763806
      16A     -1.537968    17A     -1.510587    18A     -1.323817
      19A     -1.275533    20A     -1.240450    21A     -1.169380
      22A     -1.159255    23A     -1.066443    24A     -1.063898
      25A     -0.997004    26A     -0.971573    27A     -0.961422
      28A     -0.898836    29A     -0.872008    30A     -0.862390
      31A     -0.857777    32A     -0.831692    33A     -0.818060
      34A     -0.807840    35A     -0.794745    36A     -0.774878
      37A     -0.764672    38A     -0.751371    39A     -0.731684
      40A     -0.717981    41A     -0.708760    42A     -0.691696
      43A     -0.665812    44A     -0.646968    45A     -0.631564
      46A     -0.574790    47A     -0.539573    48A     -0.478229
      49A     -0.445666

  @DF-RHF Final Energy:  -650.56911069379328

   => Energetics <=

    Nuclear Repulsion Energy =            831.7346998849526472
    One-Electron Energy =               -2523.5336351963405832
    Two-Electron Energy =                1041.2298246175946588
    DFT Exchange-Correlation Energy =       0.0000000000000000
    Empirical Dispersion Energy =           0.0000000000000000
    PCM Polarization Energy =               0.0000000000000000
    EFP Energy =                            0.0000000000000000
    Total Energy =                       -650.5691106937933910
  Basis Set: (AUG-CC-PVTZ AUX)
    Blend: AUG-CC-PVTZ-RI
    Molecular point group: c1
  Basis Set: AUG-CC-PVTZ
    Blend: AUG-CC-PVTZ
  Basis Set: (AUG-CC-PVTZ AUX)
    Blend: AUG-CC-PVTZ-JKFIT
  Basis Set: (AUG-CC-PVTZ AUX)
    Blend: AUG-CC-PVTZ-JKFIT
	 Reference Energy          =    -650.5691106937932773 [Eh]
	 Singles Energy            =      -0.0000000000000000 [Eh]
	 Same-Spin Energy          =      -0.6687086480337280 [Eh]
	 Opposite-Spin Energy      =      -2.0122697960354503 [Eh]
	 Correlation Energy        =      -2.6809784440691784 [Eh]
	 Total Energy              =    -653.2500891378624601 [Eh]

	 ================> DF-SCS-MP2 Energies <==================
	-----------------------------------------------------------
	 SCS Same-Spin Scale       =       0.3333333333333333 [-]
	 SCS Opposite-Spin Scale   =       1.2000000000000000 [-]
	 SCS Same-Spin Energy      =      -0.2229028826779093 [Eh]
	 SCS Opposite-Spin Energy  =      -2.4147237552425405 [Eh]
	 SCS Correlation Energy    =      -2.6376266379204498 [Eh]
	 SCS Total Energy          =    -653.2067373317137253 [Eh]
	-----------------------------------------------------------

  -Total Gradient:
     Atom            X                  Y                   Z
    ------   -----------------  -----------------  -----------------
       1       -0.001699877886    -0.003148084340     0.000087774631
       2       -0.000109852131     0.000049550392    -0.000033133298
       3        0.002285628312     0.001491756671     0.002271547059
       4        0.000073015782    -0.000064401497    -0.000008272642
       5        0.000103017313    -0.000022660532     0.000012941923
       6       -0.000008353138     0.000003096120    -0.000100835557
       7       -0.000026677415    -0.000101999305     0.000131449615
       8        0.003762575074     0.005642445200     0.000918358824
       9       -0.004309417189    -0.003846089328    -0.003392879940
      10        0.000089451596     0.000107002931     0.000055288323
      11       -0.000112833424    -0.000089625872     0.000093227268
      12        0.000000970347     0.000070915927    -0.000015974944
      13       -0.000014314503    -0.000049446219    -0.000023395730
      14       -0.000000619243    -0.000034640231    -0.000006794845
      15       -0.000031777681    -0.000079762045     0.000040484240
      16        0.000030949457    -0.000029947689     0.000034968747
      17        0.000014374905    -0.000015452653     0.000041134385
      18        0.000008474063     0.000072471502    -0.000053337528
      19       -0.000029839412     0.000006886289    -0.000040958488
      20        0.000003640154    -0.000000032285     0.000045207530
      21       -0.000006736675     0.000029069514    -0.000017608505
      22       -0.000013948135     0.000017452400     0.000007752421
      23       -0.000007850172    -0.000008504942    -0.000046943483

  **** Optimization is complete! (in 19 steps) ****
    Final optimized geometry and variables:
    Molecular point group: c1

    Geometry (in Angstrom), charge = 1, multiplicity = 1:

    C           -1.307418987211     0.813373952369    -0.783178697632
    C           -2.392098496331     1.372468553397    -0.147221585475
    C            1.453029622625     0.197421262961    -1.826000254309
    C            1.342352189171    -1.675196881075    -0.341112945223
    C           -1.466180719632     0.728657187863     1.985205135666
    C            2.509722215486    -0.395323617790    -2.471862160290
    C            2.402283932269    -2.239860098680    -1.006666809127
    C           -0.275534047215     0.198068862909    -0.064376793143
    C            0.828835662369    -0.438362848962    -0.747396725483
    C           -2.471840373682     1.340056055342     1.244215110809
    C           -0.407299881162     0.158201336021     1.320090636625
    N            2.951075210830    -1.589751701698    -2.046002942321
    O           -3.549747721207     1.913372817696     1.802853175871
    F            0.562920674620    -0.422857331866     2.047299729329
    H           -1.265531000426     0.821180407910    -1.862421194481
    H           -3.192261852510     1.830691933101    -0.705236421192
    H            1.121638922127     1.169947478315    -2.152621230518
    H            0.904718922117    -2.207738114458     0.485798499092
    H           -1.493135778383     0.691509072158     3.063262581883
    H            3.030902431532     0.050559363697    -3.302385573084
    H            2.829705094382    -3.194055783034    -0.747926822081
    H            3.734733277636    -2.015501679740    -2.524493304877
    H           -3.518630784034     1.838096956640     2.763098283066

*** Psi4 exiting successfully. Buy a developer a beer!
