                              Psi4 1.0.0 Driver

  ==> Input File <==

--------------------------------------------------------------------------

memory 1000 mb

molecule butane {
  symmetry C1
  0 1
  H      1.604   0.760   -8.260
  H      1.745   2.388   -8.880
  H      2.043   1.024   -9.930
  C      2.142   1.395   -8.932
  H      4.169   2.051   -9.210
  H      3.731   1.788   -7.539
  C      3.631   1.416   -8.537
  H      4.566   -0.301   -7.648
  H      3.434   -0.688   -8.921
  C      4.203   -0.012   -8.612
  H      5.756   -1.042   -9.680
  H      6.128   0.626   -9.320
  H      4.996   0.239   -10.593
  C      5.358   -0.050   -9.629
  units Angstrom
}

dih_string = "4 7 10 14 120"
set optking fixed_dihedral = $dih_string

optimize('MP2/6-31G(d)')
--------------------------------------------------------------------------

    Molecular point group: c1
  Charge       = 0
  Multiplicity = 1
  Basis Set: 6-31G(D)
  Basis Set:
  @DF-RHF Final Energy:  -157.28784910158814
    Total Energy =                       -157.2878491015881650
  Basis Set:
    Molecular point group: c1
  Basis Set: 6-31G(D)
  Basis Set:
  Basis Set:
	 Reference Energy          =    -157.2878491015881366 [Eh]
	 Singles Energy            =      -0.0000000000000000 [Eh]
	 Same-Spin Energy          =      -0.1244268998579068 [Eh]
	 Opposite-Spin Energy      =      -0.4204302422042706 [Eh]
	 Correlation Energy        =      -0.5448571420621774 [Eh]
	 Total Energy              =    -157.8327062436503070 [Eh]
	 SCS Total Energy          =    -157.8338410255192343 [Eh]
  Basis Set: 6-31G(D)
  Basis Set:
  @DF-RHF Final Energy:  -157.29086384434351
    Total Energy =                       -157.2908638443435052
  Basis Set:
  Basis Set: 6-31G(D)
  Basis Set:
  @DF-RHF Final Energy:  -157.29175292760550
    Total Energy =                       -157.2917529276054154
  @DF-RHF Final Energy:  -157.29203531455570
    Total Energy =                       -157.2920353145556192
  @DF-RHF Final Energy:  -157.29202054610624
    Total Energy =                       -157.2920205461064143
	 Singles Energy            =      -0.0000000000000000 [Eh]
	 Same-Spin Energy          =      -0.1242750384955381 [Eh]
	 Opposite-Spin Energy      =      -0.4224324477887693 [Eh]
	 Correlation Energy        =      -0.5467074862843074 [Eh]
	 Total Energy              =    -157.8387280323905486 [Eh]
	 SCS Total Energy          =    -157.8403644962846215 [Eh]
  Charge       = 0
  Multiplicity = 1
  Basis Set: 6-31G(D)
  Basis Set:

    Orbital Energies (a.u.)
    -----------------------

    Doubly Occupied:

       1A    -11.215466     2A    -11.214909     3A    -11.210531
       4A    -11.210524     5A     -1.067638     6A     -0.978932
       7A     -0.860289     8A     -0.785727     9A     -0.628751
      10A     -0.598339    11A     -0.579590    12A     -0.550567
      13A     -0.508244    14A     -0.508191    15A     -0.465843
      16A     -0.454103    17A     -0.453775

  @DF-RHF Final Energy:  -157.29203887580158

   => Energetics <=

    Nuclear Repulsion Energy =            131.0780283715166945
    One-Electron Energy =                -470.1572930679302544
    Two-Electron Energy =                 181.7872258206119795
    DFT Exchange-Correlation Energy =       0.0000000000000000
    Empirical Dispersion Energy =           0.0000000000000000
    PCM Polarization Energy =               0.0000000000000000
    EFP Energy =                            0.0000000000000000
    Total Energy =                       -157.2920388758016088
  Basis Set:
    Molecular point group: c1
  Basis Set: 6-31G(D)
  Basis Set:
  Basis Set:
	 Reference Energy          =    -157.2920388758015804 [Eh]
	 Singles Energy            =      -0.0000000000000000 [Eh]
	 Same-Spin Energy          =      -0.1242727840699620 [Eh]
	 Opposite-Spin Energy      =      -0.4224171219255223 [Eh]
	 Correlation Energy        =      -0.5466899059954844 [Eh]
	 Total Energy              =    -157.8387287817970730 [Eh]

	 ================> DF-SCS-MP2 Energies <==================
	-----------------------------------------------------------
	 SCS Same-Spin Scale       =       0.3333333333333333 [-]
	 SCS Opposite-Spin Scale   =       1.2000000000000000 [-]
	 SCS Same-Spin Energy      =      -0.0414242613566540 [Eh]
	 SCS Opposite-Spin Energy  =      -0.5069005463106268 [Eh]
	 SCS Correlation Energy    =      -0.5483248076672808 [Eh]
	 SCS Total Energy          =    -157.8403636834688655 [Eh]
	-----------------------------------------------------------

  -Total Gradient:
     Atom            X                  Y                   Z
    ------   -----------------  -----------------  -----------------
       1        0.000001933219    -0.000006004490    -0.000003915877
       2       -0.000013353814     0.000001110256     0.000001534552
       3        0.000004153916     0.000006311438     0.000000598325
       4        0.000065595496     0.000025597694    -0.000065197406
       5        0.000000231871     0.000000408295     0.000027570430
       6       -0.000022569520     0.000008867063    -0.000013352301
       7       -0.000079368719     0.000020992524     0.000059962955
       8        0.000014712054    -0.000010504381    -0.000021476388
       9        0.000012388010     0.000001926846     0.000024654619
      10        0.000098668776    -0.000017797383     0.000020828702
      11        0.000011898217    -0.000001070070    -0.000004367075
      12       -0.000004521354     0.000005158240    -0.000002774510
      13       -0.000003508368    -0.000006237523     0.000003228634
      14       -0.000086259783    -0.000028758510    -0.000027294659

  **** Optimization is complete! (in 6 steps) ****
    Final optimized geometry and variables:
    Molecular point group: c1

    Geometry (in Angstrom), charge = 0, multiplicity = 1:

    H           -2.286815242747     0.060118960192     0.696669895041
    H           -2.150365761097     1.713623134217     0.083443703695
    H           -1.857069410607     0.341428241555    -0.993938918210
    C           -1.717401867146     0.710737455563     0.026557998907
    H            0.295230590624     1.406439398135    -0.260627927737
    H           -0.123112606206     1.117037702466     1.412331585077
    C           -0.238407501221     0.713683987286     0.400636040959
    H            0.760755019789    -1.003412794588     1.293071681222
    H           -0.354066237179    -1.416925375598     0.010987409402
    C            0.405336213688    -0.683938415567     0.307613306793
    H            1.993676454197    -1.741547539965    -0.748177421995
    H            2.358252441007    -0.047410948171    -0.393592959640
    H            1.225201692351    -0.453998760316    -1.686984346456
    C            1.562089435012    -0.738412956171    -0.685523249676

*** Psi4 exiting successfully. Buy a developer a beer!
