                               Psi4 1.1 release

  ==> Input File <==

--------------------------------------------------------------------------

memory 5 Gb

molecule phepyrOH_neutral {
  symmetry C1
  0 1
  C      1.885   -1.036   -0.112
  C      2.878   -1.652   2.002
  C      0.807   -0.463   0.561
  C      1.800   -1.079   2.676
  C      3.999   -3.565   -0.461
  C      5.159   -1.459   -0.394
  C      5.095   -4.086   -1.129
  C      6.204   -2.075   -1.065
  C      2.921   -1.631   0.608
  C      4.040   -2.225   -0.090
  C      0.764   -0.484   1.955
  N      6.201   -3.373   -1.442
  O      -0.288   0.076   2.612
  H      1.904   -1.012   -1.199
  H      3.678   -2.112   2.578
  H      0.003   -0.001   -0.006
  H      1.772   -1.098   3.762
  H      3.143   -4.194   -0.243
  H      5.227   -0.411   -0.120
  H      5.112   -5.125   -1.442
  H      7.100   -1.521   -1.324
  H      -0.175   -0.018   3.571
  units Angstrom
}

dih_string = "1 9 10 5 270"
set optking fixed_dihedral = $dih_string

optimize('MP2/aug-cc-PVTZ')
--------------------------------------------------------------------------

    Molecular point group: c1
  Charge       = 0
  Multiplicity = 1
  Basis Set: AUG-CC-PVTZ
    Blend: AUG-CC-PVTZ
  Basis Set: (AUG-CC-PVTZ AUX)
    Blend: AUG-CC-PVTZ-JKFIT
  @DF-RHF Final Energy:  -551.28410103841554
    Total Energy =                       -551.2841010384155425
  Basis Set: (AUG-CC-PVTZ AUX)
    Blend: AUG-CC-PVTZ-RI
    Molecular point group: c1
  Basis Set: AUG-CC-PVTZ
    Blend: AUG-CC-PVTZ
  Basis Set: (AUG-CC-PVTZ AUX)
    Blend: AUG-CC-PVTZ-JKFIT
  Basis Set: (AUG-CC-PVTZ AUX)
    Blend: AUG-CC-PVTZ-JKFIT
	 Reference Energy          =    -551.2841010384155425 [Eh]
	 Singles Energy            =      -0.0000000000000000 [Eh]
	 Same-Spin Energy          =      -0.6041192469447507 [Eh]
	 Opposite-Spin Energy      =      -1.8301716200650515 [Eh]
	 Correlation Energy        =      -2.4342908670098025 [Eh]
	 Total Energy              =    -553.7183919054253920 [Eh]
	 SCS Total Energy          =    -553.6816800648085746 [Eh]
  @DF-RHF Final Energy:  -551.28957681499344
    Total Energy =                       -551.2895768149934383
  @DF-RHF Final Energy:  -551.29056245319248
    Total Energy =                       -551.2905624531924786
  @DF-RHF Final Energy:  -551.29051786157720
    Total Energy =                       -551.2905178615772002
  Charge       = 0
  Multiplicity = 1
  Basis Set: AUG-CC-PVTZ
    Blend: AUG-CC-PVTZ
  Basis Set: (AUG-CC-PVTZ AUX)
    Blend: AUG-CC-PVTZ-JKFIT

    Orbital Energies (a.u.)
    -----------------------

    Doubly Occupied:

       1A    -20.598897     2A    -15.562842     3A    -11.309643
       4A    -11.272123     5A    -11.272107     6A    -11.262935
       7A    -11.250317     8A    -11.248271     9A    -11.243986
      10A    -11.241997    11A    -11.236621    12A    -11.236583
      13A    -11.235642    14A     -1.416018    15A     -1.259108
      16A     -1.172751    17A     -1.104468    18A     -1.033898
      19A     -1.032856    20A     -1.012299    21A     -0.878703
      22A     -0.858352    23A     -0.857860    24A     -0.811465
      25A     -0.745338    26A     -0.724818    27A     -0.677697
      28A     -0.668889    29A     -0.656074    30A     -0.637631
      31A     -0.615917    32A     -0.601003    33A     -0.600800
      34A     -0.596298    35A     -0.581351    36A     -0.539794
      37A     -0.528787    38A     -0.524087    39A     -0.504688
      40A     -0.489170    41A     -0.417338    42A     -0.378447
      43A     -0.356446    44A     -0.345677    45A     -0.323924

  @DF-RHF Final Energy:  -551.29048913413385

   => Energetics <=

    Nuclear Repulsion Energy =            696.7813618248031844
    One-Electron Energy =               -2130.2958692522952333
    Two-Electron Energy =                 882.2240182933580854
    DFT Exchange-Correlation Energy =       0.0000000000000000
    Empirical Dispersion Energy =           0.0000000000000000
    PCM Polarization Energy =               0.0000000000000000
    EFP Energy =                            0.0000000000000000
    Total Energy =                       -551.2904891341338498
  Basis Set: (AUG-CC-PVTZ AUX)
    Blend: AUG-CC-PVTZ-RI
    Molecular point group: c1
  Basis Set: AUG-CC-PVTZ
    Blend: AUG-CC-PVTZ
  Basis Set: (AUG-CC-PVTZ AUX)
    Blend: AUG-CC-PVTZ-JKFIT
  Basis Set: (AUG-CC-PVTZ AUX)
    Blend: AUG-CC-PVTZ-JKFIT
	 Reference Energy          =    -551.2904891341338498 [Eh]
	 Singles Energy            =      -0.0000000000000001 [Eh]
	 Same-Spin Energy          =      -0.6031985679981301 [Eh]
	 Opposite-Spin Energy      =      -1.8278336599411162 [Eh]
	 Correlation Energy        =      -2.4310322279392462 [Eh]
	 Total Energy              =    -553.7215213620730765 [Eh]

	 ================> DF-SCS-MP2 Energies <==================
	-----------------------------------------------------------
	 SCS Same-Spin Scale       =       0.3333333333333333 [-]
	 SCS Opposite-Spin Scale   =       1.2000000000000000 [-]
	 SCS Same-Spin Energy      =      -0.2010661893327100 [Eh]
	 SCS Opposite-Spin Energy  =      -2.1934003919293392 [Eh]
	 SCS Correlation Energy    =      -2.3944665812620491 [Eh]
	 SCS Total Energy          =    -553.6849557153958585 [Eh]
	-----------------------------------------------------------

  -Total Gradient:
     Atom            X                  Y                   Z
    ------   -----------------  -----------------  -----------------
       1        0.000011424077    -0.000017616604     0.000023138571
       2       -0.000031784019     0.000008350424     0.000041571837
       3       -0.000030497625     0.000008535620    -0.000015248455
       4        0.000026253909    -0.000016628900    -0.000023528299
       5        0.000010220998    -0.000039204007     0.000009501928
       6        0.000015637429     0.000022458122    -0.000028200572
       7       -0.000007195731     0.000057808130    -0.000166966838
       8        0.000079478122    -0.000097121565     0.000092451628
       9        0.000052034172    -0.000017680465    -0.000072837656
      10       -0.000059796201     0.000030018599     0.000066592400
      11       -0.000011657260     0.000034868999     0.000037341049
      12       -0.000015799618     0.000012630694     0.000016497443
      13        0.000007180467    -0.000012714353    -0.000043170563
      14       -0.000004951269     0.000005395612    -0.000010643791
      15        0.000015202133    -0.000008219040    -0.000004294932
      16        0.000001869932     0.000000724562    -0.000018795589
      17       -0.000005851931     0.000002459250     0.000008756102
      18       -0.000017586028    -0.000003054187     0.000024221712
      19       -0.000016315117     0.000023553067     0.000000013269
      20        0.000007595067    -0.000017284387     0.000061283286
      21       -0.000029776007     0.000028000296    -0.000035117880
      22        0.000004314490    -0.000005279865     0.000037435345

  **** Optimization is complete! (in 5 steps) ****
    Final optimized geometry and variables:
    Molecular point group: c1

    Geometry (in Angstrom), charge = 0, multiplicity = 1:

    C           -1.271236860799     0.719407539748    -0.554568619943
    C           -0.278215996518     0.103639432353     1.534669819143
    C           -2.342213241574     1.288571803079     0.114083827875
    C           -1.347636505191     0.671699226217     2.211435572716
    C            0.893682432309    -1.817696106990    -0.955235222074
    C            2.039156539714     0.259522404636    -0.888784313228
    C            1.986970381784    -2.342746596985    -1.628001003698
    C            3.085195347409    -0.352050050823    -1.563590229296
    C           -0.226299232989     0.120205197458     0.144885033975
    C            0.908126165079    -0.482486195024    -0.569732473528
    C           -2.381615378155     1.265313311523     1.500852959185
    N            3.075659565729    -1.634079346346    -1.935398960711
    O           -3.459952676824     1.840470227679     2.103981778219
    H           -1.243501462437     0.739185503447    -1.634019819531
    H            0.524049933689    -0.357109467261     2.091873751829
    H           -3.153485891676     1.753623607354    -0.424205075629
    H           -1.376050372969     0.652213921727     3.292338038363
    H            0.038623665887    -2.438332537957    -0.732311697671
    H            2.100783437267     1.301763822789    -0.613195085481
    H            1.990293172750    -3.379833110467    -1.933148540419
    H            3.971054411765     0.212623032532    -1.818680919471
    H           -3.365749634591     1.757385605802     3.057625950700

*** Psi4 exiting successfully. Buy a developer a beer!
