                               Psi4 1.1 release

  ==> Input File <==

--------------------------------------------------------------------------

memory 5 Gb

molecule phepyrFOH_zwitterion {
  symmetry C1
  0 1
  C      1.885   -1.036   -0.112
  C      0.807   -0.463   0.561
  C      5.328   -1.751   0.122
  C      3.823   -3.268   -0.990
  C      1.800   -1.079   2.676
  C      6.380   -2.338   -0.566
  C      4.913   -3.817   -1.650
  C      2.921   -1.631   0.608
  C      4.038   -2.224   -0.095
  C      0.764   -0.484   1.955
  C      2.878   -1.652   2.002
  N      6.146   -3.343   -1.422
  O      -0.227   0.043   2.574
  F      3.866   -2.220   2.709
  H      1.904   -1.013   -1.200
  H      0.011   -0.007   -0.025
  H      5.525   -0.938   0.815
  H      2.827   -3.657   -1.179
  H      1.791   -1.109   3.764
  H      7.413   -2.037   -0.460
  H      4.841   -4.629   -2.360
  H      6.933   -3.759   -1.918
  units Angstrom
}

dih_string = "1 8 9 3 120"
set optking fixed_dihedral = $dih_string

optimize('MP2/aug-cc-PVTZ')
--------------------------------------------------------------------------

    Molecular point group: c1
  Charge       = 0
  Multiplicity = 1
  Basis Set: AUG-CC-PVTZ
    Blend: AUG-CC-PVTZ
  Basis Set: (AUG-CC-PVTZ AUX)
    Blend: AUG-CC-PVTZ-JKFIT
  @DF-RHF Final Energy:  -650.09322514084590
    Total Energy =                       -650.0932251408457887
  Basis Set: (AUG-CC-PVTZ AUX)
    Blend: AUG-CC-PVTZ-RI
    Molecular point group: c1
  Basis Set: AUG-CC-PVTZ
    Blend: AUG-CC-PVTZ
  Basis Set: (AUG-CC-PVTZ AUX)
    Blend: AUG-CC-PVTZ-JKFIT
  Basis Set: (AUG-CC-PVTZ AUX)
    Blend: AUG-CC-PVTZ-JKFIT
	 Reference Energy          =    -650.0932251408459024 [Eh]
	 Singles Energy            =      -0.0000000000000001 [Eh]
	 Same-Spin Energy          =      -0.6786404757365256 [Eh]
	 Opposite-Spin Energy      =      -2.0244841505512965 [Eh]
	 Correlation Energy        =      -2.7031246262878224 [Eh]
	 Total Energy              =    -652.7963497671337336 [Eh]
	 SCS Total Energy          =    -652.7488196134196414 [Eh]
  @DF-RHF Final Energy:  -650.10208582821951
    Total Energy =                       -650.1020858282195150
  @DF-RHF Final Energy:  -650.10867369587095
    Total Energy =                       -650.1086736958709480
  @DF-RHF Final Energy:  -650.11289738074549
    Total Energy =                       -650.1128973807453804
  @DF-RHF Final Energy:  -650.11548229593609
    Total Energy =                       -650.1154822959360899
  @DF-RHF Final Energy:  -650.11734046849756
    Total Energy =                       -650.1173404684975594
  @DF-RHF Final Energy:  -650.11891404747803
    Total Energy =                       -650.1189140474780288
  @DF-RHF Final Energy:  -650.12037647443071
    Total Energy =                       -650.1203764744307136
  @DF-RHF Final Energy:  -650.12097832318204
    Total Energy =                       -650.1209783231820438
  @DF-RHF Final Energy:  -650.12043760905294
    Total Energy =                       -650.1204376090529422
  @DF-RHF Final Energy:  -650.12155720698797
    Total Energy =                       -650.1215572069879727
  @DF-RHF Final Energy:  -650.12162116806792
    Total Energy =                       -650.1216211680678043
  @DF-RHF Final Energy:  -650.12070209650324
    Total Energy =                       -650.1207020965032370
  @DF-RHF Final Energy:  -650.12174191941176
    Total Energy =                       -650.1217419194117610
  @DF-RHF Final Energy:  -650.12252584692317
    Total Energy =                       -650.1225258469232813
  @DF-RHF Final Energy:  -650.12303737455113
    Total Energy =                       -650.1230373745511315
    Molecular point group: c1
  Charge       = 0
  Multiplicity = 1
  Basis Set: AUG-CC-PVTZ
    Blend: AUG-CC-PVTZ
  Basis Set: (AUG-CC-PVTZ AUX)
    Blend: AUG-CC-PVTZ-JKFIT

    Orbital Energies (a.u.)
    -----------------------

    Doubly Occupied:

       1A    -26.302213     2A    -20.470968     3A    -15.682841
       4A    -11.346589     5A    -11.343734     6A    -11.320627
       7A    -11.312328     8A    -11.279758     9A    -11.275304
      10A    -11.274969    11A    -11.242862    12A    -11.224489
      13A    -11.198458    14A    -11.198188    15A     -1.617457
      16A     -1.362740    17A     -1.307820    18A     -1.176605
      19A     -1.115073    20A     -1.102964    21A     -1.013453
      22A     -1.003674    23A     -0.921113    24A     -0.905801
      25A     -0.827821    26A     -0.826570    27A     -0.809265
      28A     -0.740678    29A     -0.724585    30A     -0.705867
      31A     -0.691171    32A     -0.679349    33A     -0.672443
      34A     -0.660986    35A     -0.637175    36A     -0.619412
      37A     -0.611605    38A     -0.590077    39A     -0.564315
      40A     -0.560576    41A     -0.525703    42A     -0.521292
      43A     -0.498539    44A     -0.470250    45A     -0.417529
      46A     -0.403750    47A     -0.370321    48A     -0.342072
      49A     -0.250680

  @DF-RHF Final Energy:  -650.12345090040060

   => Energetics <=

    Nuclear Repulsion Energy =            815.8171263097798374
    One-Electron Energy =               -2506.4370418453904676
    Two-Electron Energy =                1040.4964646352100317
    DFT Exchange-Correlation Energy =       0.0000000000000000
    Empirical Dispersion Energy =           0.0000000000000000
    PCM Polarization Energy =               0.0000000000000000
    EFP Energy =                            0.0000000000000000
    Total Energy =                       -650.1234509004007123
  Basis Set: (AUG-CC-PVTZ AUX)
    Blend: AUG-CC-PVTZ-RI
    Molecular point group: c1

    Geometry (in Angstrom), charge = 0, multiplicity = 1:

       Center              X                  Y                   Z               Mass
    ------------   -----------------  -----------------  -----------------  -----------------
           C         -1.476116266987     0.412114638817    -0.723371837966    12.000000000000
           C         -2.429561174267     1.199346389194    -0.163831355796    12.000000000000
           C          2.049355520351    -0.201109299973    -0.345568277162    12.000000000000
           C          0.591833679753    -1.471424899104    -1.764898526841    12.000000000000
           C         -1.351888994062     0.942786175330     2.015660418991    12.000000000000
           C          3.097877621370    -0.573491261833    -1.127089237517    12.000000000000
           C          1.663565559096    -1.832026840098    -2.520575404897    12.000000000000
           C         -0.410133993942    -0.151486671666     0.036818691618    12.000000000000
           C          0.728926341762    -0.664761095003    -0.598465212084    12.000000000000
           C         -2.453800237030     1.499453028680     1.255899588149    12.000000000000
           C         -0.392657452513     0.213083483174     1.406243457374    12.000000000000
           N          2.905028415297    -1.389851512534    -2.197542633209    14.003074004780
           O         -3.338929886802     2.190230093040     1.781052993871    15.994914619560
           F          0.633541598566    -0.278560102675     2.150553146094    18.998403224000
           H         -1.485282309785     0.235458506556    -1.790679865987     1.007825032070
           H         -3.195461183519     1.653704563950    -0.773266418895     1.007825032070
           H          2.232804638495     0.465647005252     0.480860482084     1.007825032070
           H         -0.380314813626    -1.850353168673    -2.037042228645     1.007825032070
           H         -1.315746323297     1.119569827319     3.078913285873     1.007825032070
           H          4.102360655184    -0.217588284755    -0.970191137348     1.007825032070
           H          1.591277079397    -2.476911630680    -3.381202725199     1.007825032070
           H          3.690839934842    -1.656147293482    -2.765932465287     1.007825032070

  Basis Set: AUG-CC-PVTZ
    Blend: AUG-CC-PVTZ
  Basis Set: (AUG-CC-PVTZ AUX)
    Blend: AUG-CC-PVTZ-JKFIT
  Basis Set: (AUG-CC-PVTZ AUX)
    Blend: AUG-CC-PVTZ-JKFIT
	 Reference Energy          =    -650.1234509004005986 [Eh]
	 Singles Energy            =      -0.0000000000000010 [Eh]
	 Same-Spin Energy          =      -0.6742783710112519 [Eh]
	 Opposite-Spin Energy      =      -2.0237922292119759 [Eh]
	 Correlation Energy        =      -2.6980706002232289 [Eh]
	 Total Energy              =    -652.8215215006238168 [Eh]

	 ================> DF-SCS-MP2 Energies <==================
	-----------------------------------------------------------
	 SCS Same-Spin Scale       =       0.3333333333333333 [-]
	 SCS Opposite-Spin Scale   =       1.2000000000000000 [-]
	 SCS Same-Spin Energy      =      -0.2247594570037506 [Eh]
	 SCS Opposite-Spin Energy  =      -2.4285506750543711 [Eh]
	 SCS Correlation Energy    =      -2.6533101320581225 [Eh]
	 SCS Total Energy          =    -652.7767610324586940 [Eh]
	-----------------------------------------------------------

  -Total Gradient:
     Atom            X                  Y                   Z
    ------   -----------------  -----------------  -----------------
       1        0.006152068519     0.013867157247     0.000508842838
       2        0.000761670605    -0.000172280102    -0.000600996470
       3       -0.000750549356     0.010356979509    -0.012160896627
       4       -0.000287079050    -0.000497349738    -0.000379181587
       5        0.000401621940    -0.000248616640    -0.000216992545
       6        0.000309850473     0.000568965679     0.000523427356
       7       -0.000042533777    -0.000017620531    -0.000198766881
       8       -0.010045324710    -0.013542503789    -0.008116491663
       9        0.005154571565    -0.008419617918     0.019107529526
      10       -0.000972970216     0.000543422202     0.000381661491
      11       -0.000063212345    -0.000924861332    -0.000056832916
      12       -0.000055596191    -0.000253744711    -0.000550425313
      13       -0.000151462132     0.000329510903     0.000267920185
      14       -0.000159548254    -0.000143427290     0.000667119250
      15       -0.000108945073    -0.000504547332     0.000029250181
      16       -0.000088880112    -0.000256964025     0.000159938987
      17       -0.000171306260    -0.000071359484     0.000390492731
      18        0.000062269662    -0.000155672198     0.000319079363
      19       -0.000213435339     0.000031665180     0.000320969995
      20        0.000051718191    -0.000183281933    -0.000014630215
      21        0.000114515647    -0.000303590304    -0.000226246193
      22        0.000102556205    -0.000002263397    -0.000154771471

*** Psi4 exiting successfully. Buy a developer a beer!
