                               Psi4 1.1 release

  ==> Input File <==

--------------------------------------------------------------------------

memory 5 Gb

molecule phepyrOH_anion {
  symmetry C1
  -1 1
  C      1.885   -1.036   -0.112
  C      2.878   -1.652   2.002
  C      0.807   -0.463   0.561
  C      1.800   -1.079   2.676
  C      5.160   -1.461   -0.393
  C      3.999   -3.566   -0.459
  C      6.206   -2.078   -1.062
  C      5.096   -4.088   -1.125
  C      2.921   -1.631   0.608
  C      4.040   -2.226   -0.090
  C      0.764   -0.484   1.955
  N      6.202   -3.376   -1.437
  O      -0.227   0.042   2.574
  H      1.904   -1.011   -1.199
  H      3.678   -2.112   2.577
  H      0.011   -0.006   -0.025
  H      1.791   -1.108   3.764
  H      5.229   -0.412   -0.121
  H      3.142   -4.194   -0.240
  H      7.103   -1.525   -1.320
  H      5.114   -5.128   -1.435
  units Angstrom
}

dih_string = "1 9 10 5 90"
set optking fixed_dihedral = $dih_string

optimize('MP2/aug-cc-PVTZ')
--------------------------------------------------------------------------

    Molecular point group: c1
  Charge       = -1
  Multiplicity = 1
  Basis Set: AUG-CC-PVTZ
    Blend: AUG-CC-PVTZ
  Basis Set: (AUG-CC-PVTZ AUX)
    Blend: AUG-CC-PVTZ-JKFIT
  @DF-RHF Final Energy:  -550.70718319104230
    Total Energy =                       -550.7071831910423043
  Basis Set: (AUG-CC-PVTZ AUX)
    Blend: AUG-CC-PVTZ-RI
    Molecular point group: c1
  Basis Set: AUG-CC-PVTZ
    Blend: AUG-CC-PVTZ
  Basis Set: (AUG-CC-PVTZ AUX)
    Blend: AUG-CC-PVTZ-JKFIT
  Basis Set: (AUG-CC-PVTZ AUX)
    Blend: AUG-CC-PVTZ-JKFIT
	 Reference Energy          =    -550.7071831910423043 [Eh]
	 Singles Energy            =      -0.0000000000000004 [Eh]
	 Same-Spin Energy          =      -0.6131001854065484 [Eh]
	 Opposite-Spin Energy      =      -1.8375332527728894 [Eh]
	 Correlation Energy        =      -2.4506334381794384 [Eh]
	 Total Energy              =    -553.1578166292217702 [Eh]
	 SCS Total Energy          =    -553.1165898228385913 [Eh]
  @DF-RHF Final Energy:  -550.71370891034655
    Total Energy =                       -550.7137089103465541
  @DF-RHF Final Energy:  -550.71753434294237
    Total Energy =                       -550.7175343429423719
  @DF-RHF Final Energy:  -550.71855325242234
    Total Energy =                       -550.7185532524223390
  @DF-RHF Final Energy:  -550.71855980342161
    Total Energy =                       -550.7185598034216127
  Charge       = -1
  Multiplicity = 1
  Basis Set: AUG-CC-PVTZ
    Blend: AUG-CC-PVTZ
  Basis Set: (AUG-CC-PVTZ AUX)
    Blend: AUG-CC-PVTZ-JKFIT

    Orbital Energies (a.u.)
    -----------------------

    Doubly Occupied:

       1A    -20.300673     2A    -15.464417     3A    -11.172292
       4A    -11.172274     5A    -11.149201     6A    -11.128252
       7A    -11.128209     8A    -11.118166     9A    -11.092463
      10A    -11.092440    11A    -11.072225    12A    -11.053401
      13A    -11.053390    14A     -1.157687    15A     -1.131015
      16A     -1.015236    17A     -0.958560    18A     -0.929669
      19A     -0.857208    20A     -0.833503    21A     -0.752609
      22A     -0.737458    23A     -0.670467    24A     -0.646922
      25A     -0.595536    26A     -0.561601    27A     -0.546228
      28A     -0.511139    29A     -0.492623    30A     -0.485488
      31A     -0.475191    32A     -0.437281    33A     -0.426858
      34A     -0.413739    35A     -0.411464    36A     -0.366080
      37A     -0.362642    38A     -0.345534    39A     -0.318450
      40A     -0.285726    41A     -0.265707    42A     -0.246567
      43A     -0.210639    44A     -0.191533    45A     -0.105284

  @DF-RHF Final Energy:  -550.71854951926400

   => Energetics <=

    Nuclear Repulsion Energy =            680.7905077870129844
    One-Electron Energy =               -2111.5320228491336820
    Two-Electron Energy =                 880.0229655428566957
    DFT Exchange-Correlation Energy =       0.0000000000000000
    Empirical Dispersion Energy =           0.0000000000000000
    PCM Polarization Energy =               0.0000000000000000
    EFP Energy =                            0.0000000000000000
    Total Energy =                       -550.7185495192640019
  Basis Set: (AUG-CC-PVTZ AUX)
    Blend: AUG-CC-PVTZ-RI
    Molecular point group: c1
  Basis Set: AUG-CC-PVTZ
    Blend: AUG-CC-PVTZ
  Basis Set: (AUG-CC-PVTZ AUX)
    Blend: AUG-CC-PVTZ-JKFIT
  Basis Set: (AUG-CC-PVTZ AUX)
    Blend: AUG-CC-PVTZ-JKFIT
	 Reference Energy          =    -550.7185495192640019 [Eh]
	 Singles Energy            =      -0.0000000000000000 [Eh]
	 Same-Spin Energy          =      -0.6119699657969002 [Eh]
	 Opposite-Spin Energy      =      -1.8359852921914466 [Eh]
	 Correlation Energy        =      -2.4479552579883466 [Eh]
	 Total Energy              =    -553.1665047772523849 [Eh]

	 ================> DF-SCS-MP2 Energies <==================
	-----------------------------------------------------------
	 SCS Same-Spin Scale       =       0.3333333333333333 [-]
	 SCS Opposite-Spin Scale   =       1.2000000000000000 [-]
	 SCS Same-Spin Energy      =      -0.2039899885989667 [Eh]
	 SCS Opposite-Spin Energy  =      -2.2031823506297359 [Eh]
	 SCS Correlation Energy    =      -2.4071723392287026 [Eh]
	 SCS Total Energy          =    -553.1257218584927386 [Eh]
	-----------------------------------------------------------

  -Total Gradient:
     Atom            X                  Y                   Z
    ------   -----------------  -----------------  -----------------
       1        0.000004228478     0.000006389708    -0.000012886610
       2        0.000015807290    -0.000001899495     0.000010362187
       3        0.000042716201     0.000062127331     0.000015188260
       4        0.000032463877     0.000069656930    -0.000011764205
       5        0.000012409554     0.000017037727     0.000008988224
       6       -0.000008590770    -0.000025999509     0.000013546985
       7        0.000030221554    -0.000018409742     0.000029090875
       8       -0.000003518478     0.000003795611    -0.000040381075
       9        0.000031494637    -0.000006643339    -0.000018776167
      10       -0.000026103218     0.000016787350    -0.000003167864
      11       -0.000166642361    -0.000201809743     0.000017734211
      12        0.000000508507     0.000001782994     0.000007548969
      13        0.000083820168     0.000068391889    -0.000019874777
      14       -0.000011345060    -0.000002192640     0.000002497969
      15       -0.000009101292    -0.000002881022     0.000004875787
      16       -0.000009940665     0.000004844193    -0.000017042286
      17        0.000006405483    -0.000004856528     0.000019546590
      18       -0.000004080511     0.000000833218    -0.000005419127
      19        0.000001252011     0.000001192213     0.000002806557
      20       -0.000014049924     0.000015456873    -0.000014576059
      21       -0.000007955490    -0.000003604026     0.000011701558

  **** Optimization is complete! (in 6 steps) ****
    Final optimized geometry and variables:
    Molecular point group: c1

    Geometry (in Angstrom), charge = -1, multiplicity = 1:

    C           -1.295987696523     0.732501982017    -0.541947666116
    C           -0.315615215859     0.124770677654     1.547300847451
    C           -2.367632636428     1.302402646540     0.122042573044
    C           -1.383907507821     0.692615559759     2.218417376008
    C            2.032930313199     0.254953783626    -0.879886342313
    C            0.893091295295    -1.810995143966    -0.945610789809
    C            3.082821847567    -0.355202754029    -1.549751348191
    C            1.987039578119    -2.341098829008    -1.613102804922
    C           -0.243385229170     0.129554917072     0.151760993185
    C            0.889820795488    -0.473146003906    -0.555236549381
    C           -2.485151183459     1.320906514142     1.550247800506
    N            3.082096456300    -1.639176610451    -1.922725613404
    O           -3.465534904393     1.843371194565     2.162265280359
    H           -1.267961087784     0.751857182993    -1.625534713154
    H            0.486397632848    -0.335644218084     2.113087295592
    H           -3.168270818518     1.762459441430    -0.442425906491
    H           -1.412064372641     0.673848720340     3.300155619127
    H            2.091400802397     1.297649561600    -0.604391779371
    H            0.035582622469    -2.428690989849    -0.722767300433
    H            3.969638583233     0.211965211648    -1.801363782139
    H            1.987790692766    -3.380336621000    -1.915455643139

*** Psi4 exiting successfully. Buy a developer a beer!
