                               Psi4 1.1 release

  ==> Input File <==

--------------------------------------------------------------------------

memory 5 Gb

molecule phepyrOH_neutral {
  symmetry C1
  0 1
  C      1.885   -1.036   -0.112
  C      2.878   -1.652   2.002
  C      0.807   -0.463   0.561
  C      1.800   -1.079   2.676
  C      4.442   -1.721   -1.322
  C      4.718   -3.303   0.468
  C      5.520   -2.324   -1.949
  C      5.783   -3.836   -0.239
  C      2.921   -1.631   0.608
  C      4.040   -2.225   -0.090
  C      0.764   -0.484   1.955
  N      6.203   -3.373   -1.438
  O      -0.288   0.076   2.612
  H      1.904   -1.012   -1.199
  H      3.678   -2.112   2.578
  H      0.003   -0.001   -0.006
  H      1.772   -1.098   3.762
  H      3.938   -0.880   -1.789
  H      4.432   -3.724   1.427
  H      5.874   -1.967   -2.911
  H      6.344   -4.678   0.153
  H      -0.175   -0.018   3.571
  units Angstrom
}

dih_string = "1 9 10 5 30"
set optking fixed_dihedral = $dih_string

optimize('MP2/aug-cc-PVTZ')
--------------------------------------------------------------------------

    Molecular point group: c1
  Charge       = 0
  Multiplicity = 1
  Basis Set: AUG-CC-PVTZ
    Blend: AUG-CC-PVTZ
  Basis Set: (AUG-CC-PVTZ AUX)
    Blend: AUG-CC-PVTZ-JKFIT
  @DF-RHF Final Energy:  -551.28543261064942
    Total Energy =                       -551.2854326106494227
  Basis Set: (AUG-CC-PVTZ AUX)
    Blend: AUG-CC-PVTZ-RI
    Molecular point group: c1
  Basis Set: AUG-CC-PVTZ
    Blend: AUG-CC-PVTZ
  Basis Set: (AUG-CC-PVTZ AUX)
    Blend: AUG-CC-PVTZ-JKFIT
  Basis Set: (AUG-CC-PVTZ AUX)
    Blend: AUG-CC-PVTZ-JKFIT
	 Reference Energy          =    -551.2854326106494227 [Eh]
	 Singles Energy            =      -0.0000000000000003 [Eh]
	 Same-Spin Energy          =      -0.6052640808749402 [Eh]
	 Opposite-Spin Energy      =      -1.8311378090471671 [Eh]
	 Correlation Energy        =      -2.4364018899221076 [Eh]
	 Total Energy              =    -553.7218345005715037 [Eh]
	 SCS Total Energy          =    -553.6845526751310445 [Eh]
  @DF-RHF Final Energy:  -551.29153016348516
    Total Energy =                       -551.2915301634851630
  @DF-RHF Final Energy:  -551.29296375106901
    Total Energy =                       -551.2929637510690100
  @DF-RHF Final Energy:  -551.29294852749729
    Total Energy =                       -551.2929485274972876
  @DF-RHF Final Energy:  -551.29292426903226
    Total Energy =                       -551.2929242690322553
  Charge       = 0
  Multiplicity = 1
  Basis Set: AUG-CC-PVTZ
    Blend: AUG-CC-PVTZ
  Basis Set: (AUG-CC-PVTZ AUX)
    Blend: AUG-CC-PVTZ-JKFIT

    Orbital Energies (a.u.)
    -----------------------

    Doubly Occupied:

       1A    -20.602763     2A    -15.559188     3A    -11.314159
       4A    -11.270835     5A    -11.270758     6A    -11.265119
       7A    -11.253576     8A    -11.251315     9A    -11.246479
      10A    -11.244191    11A    -11.237723    12A    -11.234750
      13A    -11.234565    14A     -1.420028    15A     -1.257008
      16A     -1.175780    17A     -1.105428    18A     -1.039634
      19A     -1.029878    20A     -1.013321    21A     -0.882676
      22A     -0.873140    23A     -0.843231    24A     -0.813131
      25A     -0.750267    26A     -0.726375    27A     -0.685852
      28A     -0.662869    29A     -0.654598    30A     -0.635623
      31A     -0.613838    32A     -0.607433    33A     -0.604352
      34A     -0.592135    35A     -0.581142    36A     -0.545365
      37A     -0.534622    38A     -0.524068    39A     -0.502189
      40A     -0.495662    41A     -0.416427    42A     -0.397843
      43A     -0.357056    44A     -0.347295    45A     -0.308750

  @DF-RHF Final Energy:  -551.29292838084393

   => Energetics <=

    Nuclear Repulsion Energy =            697.8441613063080240
    One-Electron Energy =               -2132.3093081929200707
    Two-Electron Energy =                 883.1722185057681145
    DFT Exchange-Correlation Energy =       0.0000000000000000
    Empirical Dispersion Energy =           0.0000000000000000
    PCM Polarization Energy =               0.0000000000000000
    EFP Energy =                            0.0000000000000000
    Total Energy =                       -551.2929283808439322
  Basis Set: (AUG-CC-PVTZ AUX)
    Blend: AUG-CC-PVTZ-RI
    Molecular point group: c1
  Basis Set: AUG-CC-PVTZ
    Blend: AUG-CC-PVTZ
  Basis Set: (AUG-CC-PVTZ AUX)
    Blend: AUG-CC-PVTZ-JKFIT
  Basis Set: (AUG-CC-PVTZ AUX)
    Blend: AUG-CC-PVTZ-JKFIT
	 Reference Energy          =    -551.2929283808439322 [Eh]
	 Singles Energy            =      -0.0000000000000001 [Eh]
	 Same-Spin Energy          =      -0.6041831540224996 [Eh]
	 Opposite-Spin Energy      =      -1.8285700646965475 [Eh]
	 Correlation Energy        =      -2.4327532187190473 [Eh]
	 Total Energy              =    -553.7256815995630177 [Eh]

	 ================> DF-SCS-MP2 Energies <==================
	-----------------------------------------------------------
	 SCS Same-Spin Scale       =       0.3333333333333333 [-]
	 SCS Opposite-Spin Scale   =       1.2000000000000000 [-]
	 SCS Same-Spin Energy      =      -0.2013943846741665 [Eh]
	 SCS Opposite-Spin Energy  =      -2.1942840776358570 [Eh]
	 SCS Correlation Energy    =      -2.3956784623100233 [Eh]
	 SCS Total Energy          =    -553.6886068431539343 [Eh]
	-----------------------------------------------------------

  -Total Gradient:
     Atom            X                  Y                   Z
    ------   -----------------  -----------------  -----------------
       1        0.000491945441     0.000797040304     0.000063956515
       2       -0.000013706580     0.000016304812     0.000022706712
       3       -0.000051049601     0.000010864042     0.000050275360
       4        0.000042557616    -0.000016914266    -0.000030276630
       5       -0.000590753701    -0.000615665708    -0.000459441311
       6        0.000005068806     0.000002095060    -0.000004829281
       7        0.000066952984     0.000035461148     0.000030035466
       8       -0.000019803225    -0.000050186049    -0.000051436069
       9       -0.000980361691    -0.001533324477    -0.000315670536
      10        0.001099201852     0.001326346575     0.000707977956
      11       -0.000012337778     0.000008833920    -0.000005902710
      12       -0.000032981074     0.000013839686     0.000022871781
      13        0.000000580497    -0.000001077146    -0.000001163309
      14       -0.000006269714     0.000009308562     0.000003932684
      15       -0.000005682764    -0.000003112939    -0.000006185331
      16        0.000023996189    -0.000005318524    -0.000012408111
      17       -0.000007911726     0.000001023913    -0.000004620819
      18       -0.000003942251    -0.000005748102     0.000004945123
      19        0.000003259450     0.000010546752    -0.000000197159
      20       -0.000026867067    -0.000014851619    -0.000012970530
      21        0.000010144797     0.000017797083     0.000018977251
      22        0.000007959525    -0.000003263029    -0.000020577051

  **** Optimization is complete! (in 6 steps) ****
    Final optimized geometry and variables:
    Molecular point group: c1

    Geometry (in Angstrom), charge = 0, multiplicity = 1:

    C           -1.277482848521     0.710873872787    -0.551646899995
    C           -0.281947690070     0.110604888094     1.536234432066
    C           -2.347423733806     1.281741206056     0.113317514222
    C           -1.348018027241     0.682410587419     2.211194064832
    C            1.340340210445     0.008281266635    -1.793852830258
    C            1.602275544874    -1.572071192892    -0.050859105070
    C            2.413746388489    -0.591172771831    -2.432516603805
    C            2.666512151927    -2.105244740142    -0.759593166331
    C           -0.226800514846     0.111562270376     0.143926427760
    C            0.907573860813    -0.479452904216    -0.563457845786
    C           -2.386495871264     1.268838850950     1.500566371248
    N            3.082696988437    -1.635237168821    -1.937812126583
    O           -3.463417698005     1.846419877525     2.100954806988
    H           -1.276057515726     0.704150905778    -1.631231662569
    H            0.532462222811    -0.312957950103     2.104505203062
    H           -3.164080754514     1.732697410678    -0.428494963552
    H           -1.366574101743     0.680308065707     3.292305883495
    H            0.865683220893     0.867870575867    -2.241943006448
    H            1.302619265689    -2.024970894216     0.882002772219
    H            2.756703377201    -0.211339303864    -3.384888681779
    H            3.206029018014    -2.955643311096    -0.366353040674
    H           -3.370283926487     1.766517389666     3.055059479616

*** Psi4 exiting successfully. Buy a developer a beer!
