                               Psi4 1.1 release

  ==> Input File <==

--------------------------------------------------------------------------

memory 5 Gb

molecule phepyrOH_anion {
  symmetry C1
  -1 1
  C      1.885   -1.036   -0.112
  C      2.878   -1.652   2.002
  C      0.807   -0.463   0.561
  C      1.800   -1.079   2.676
  C      4.717   -3.304   0.468
  C      4.441   -1.722   -1.322
  C      5.781   -3.839   -0.241
  C      5.517   -2.327   -1.951
  C      2.921   -1.631   0.608
  C      4.040   -2.226   -0.090
  C      0.764   -0.484   1.955
  N      6.200   -3.377   -1.441
  O      -0.227   0.042   2.574
  H      1.904   -1.011   -1.199
  H      3.678   -2.112   2.577
  H      0.011   -0.006   -0.025
  H      1.791   -1.108   3.764
  H      4.433   -3.726   1.427
  H      3.937   -0.882   -1.788
  H      6.341   -4.682   0.150
  H      5.869   -1.972   -2.914
  units Angstrom
}

dih_string = "1 9 10 5 210"
set optking fixed_dihedral = $dih_string

optimize('MP2/aug-cc-PVTZ')
--------------------------------------------------------------------------

    Molecular point group: c1
  Charge       = -1
  Multiplicity = 1
  Basis Set: AUG-CC-PVTZ
    Blend: AUG-CC-PVTZ
  Basis Set: (AUG-CC-PVTZ AUX)
    Blend: AUG-CC-PVTZ-JKFIT
  @DF-RHF Final Energy:  -550.71582620187428
    Total Energy =                       -550.7158262018742789
  Basis Set: (AUG-CC-PVTZ AUX)
    Blend: AUG-CC-PVTZ-RI
    Molecular point group: c1
  Basis Set: AUG-CC-PVTZ
    Blend: AUG-CC-PVTZ
  Basis Set: (AUG-CC-PVTZ AUX)
    Blend: AUG-CC-PVTZ-JKFIT
  Basis Set: (AUG-CC-PVTZ AUX)
    Blend: AUG-CC-PVTZ-JKFIT
	 Reference Energy          =    -550.7158262018742789 [Eh]
	 Singles Energy            =      -0.0000000000000004 [Eh]
	 Same-Spin Energy          =      -0.6140537858567849 [Eh]
	 Opposite-Spin Energy      =      -1.8386777588902028 [Eh]
	 Correlation Energy        =      -2.4527315447469884 [Eh]
	 Total Energy              =    -553.1685577466212180 [Eh]
	 SCS Total Energy          =    -553.1269241078281311 [Eh]
  @DF-RHF Final Energy:  -550.72316589032653
    Total Energy =                       -550.7231658903265270
  @DF-RHF Final Energy:  -550.72770739682346
    Total Energy =                       -550.7277073968234617
  @DF-RHF Final Energy:  -550.72949425299601
    Total Energy =                       -550.7294942529960053
  @DF-RHF Final Energy:  -550.72966430722522
    Total Energy =                       -550.7296643072252209
  @DF-RHF Final Energy:  -550.72968077770645
    Total Energy =                       -550.7296807777064487
  Charge       = -1
  Multiplicity = 1
  Basis Set: AUG-CC-PVTZ
    Blend: AUG-CC-PVTZ
  Basis Set: (AUG-CC-PVTZ AUX)
    Blend: AUG-CC-PVTZ-JKFIT

    Orbital Energies (a.u.)
    -----------------------

    Doubly Occupied:

       1A    -20.321104     2A    -15.443903     3A    -11.161703
       4A    -11.161687     5A    -11.146049     6A    -11.134628
       7A    -11.114247     8A    -11.114182     9A    -11.102023
      10A    -11.101834    11A    -11.077231    12A    -11.063738
      13A    -11.063577    14A     -1.151753    15A     -1.141853
      16A     -1.017154    17A     -0.957731    18A     -0.918170
      19A     -0.869403    20A     -0.839281    21A     -0.742519
      22A     -0.734882    23A     -0.675408    24A     -0.651783
      25A     -0.596948    26A     -0.549129    27A     -0.538205
      28A     -0.511541    29A     -0.486473    30A     -0.483235
      31A     -0.478540    32A     -0.439825    33A     -0.430897
      34A     -0.422620    35A     -0.398728    36A     -0.382198
      37A     -0.376233    38A     -0.348099    39A     -0.318934
      40A     -0.307562    41A     -0.249218    42A     -0.238334
      43A     -0.227059    44A     -0.203497    45A     -0.108461

  @DF-RHF Final Energy:  -550.72968336968825

   => Energetics <=

    Nuclear Repulsion Energy =            682.4140210686447290
    One-Electron Energy =               -2114.6842590553860646
    Two-Electron Energy =                 881.5405546170532034
    DFT Exchange-Correlation Energy =       0.0000000000000000
    Empirical Dispersion Energy =           0.0000000000000000
    PCM Polarization Energy =               0.0000000000000000
    EFP Energy =                            0.0000000000000000
    Total Energy =                       -550.7296833696882459
  Basis Set: (AUG-CC-PVTZ AUX)
    Blend: AUG-CC-PVTZ-RI
    Molecular point group: c1
  Basis Set: AUG-CC-PVTZ
    Blend: AUG-CC-PVTZ
  Basis Set: (AUG-CC-PVTZ AUX)
    Blend: AUG-CC-PVTZ-JKFIT
  Basis Set: (AUG-CC-PVTZ AUX)
    Blend: AUG-CC-PVTZ-JKFIT
	 Reference Energy          =    -550.7296833696882459 [Eh]
	 Singles Energy            =      -0.0000000000000008 [Eh]
	 Same-Spin Energy          =      -0.6123964227004415 [Eh]
	 Opposite-Spin Energy      =      -1.8367047542197743 [Eh]
	 Correlation Energy        =      -2.4491011769202169 [Eh]
	 Total Energy              =    -553.1787845466084264 [Eh]

	 ================> DF-SCS-MP2 Energies <==================
	-----------------------------------------------------------
	 SCS Same-Spin Scale       =       0.3333333333333333 [-]
	 SCS Opposite-Spin Scale   =       1.2000000000000000 [-]
	 SCS Same-Spin Energy      =      -0.2041321409001471 [Eh]
	 SCS Opposite-Spin Energy  =      -2.2040457050637290 [Eh]
	 SCS Correlation Energy    =      -2.4081778459638770 [Eh]
	 SCS Total Energy          =    -553.1378612156521513 [Eh]
	-----------------------------------------------------------

  -Total Gradient:
     Atom            X                  Y                   Z
    ------   -----------------  -----------------  -----------------
       1       -0.001006803326    -0.001847405770    -0.000050422191
       2        0.000034675025    -0.000004627842     0.000013446608
       3       -0.000016846976     0.000013273424    -0.000006850470
       4       -0.000026943739    -0.000006255955     0.000006182703
       5       -0.001322782679    -0.001375256061    -0.000957821321
       6        0.000026994056     0.000061261268    -0.000006342449
       7        0.000102198155     0.000106465846     0.000080745050
       8       -0.000119872076    -0.000152333582    -0.000071488315
       9        0.000786874041     0.002082369509    -0.000440539968
      10        0.001530654916     0.001062296873     0.001420111960
      11        0.000004925613     0.000029047436     0.000022682487
      12       -0.000005114508     0.000033880310     0.000006584967
      13        0.000021482912    -0.000020230808    -0.000020387325
      14       -0.000001093523     0.000005735781     0.000007114112
      15       -0.000012236728     0.000013302559    -0.000008375349
      16        0.000006822691     0.000003797129    -0.000006084332
      17        0.000002730752    -0.000012930739     0.000003449507
      18       -0.000012443665     0.000002684056    -0.000019757581
      19        0.000006339544     0.000004033366     0.000030507202
      20       -0.000036427296    -0.000034449972    -0.000030527466
      21        0.000036866809     0.000035343172     0.000027772181

  **** Optimization is complete! (in 7 steps) ****
    Final optimized geometry and variables:
    Molecular point group: c1

    Geometry (in Angstrom), charge = -1, multiplicity = 1:

    C           -1.271246082596     0.776603212385    -0.534974904311
    C           -0.323494538114     0.117151017046     1.555049204423
    C           -2.356026521835     1.314898834395     0.118969393394
    C           -1.394376632596     0.666497713709     2.222438452167
    C            1.613249210982    -1.528177569030    -0.023018993838
    C            1.325466081759    -0.006518918798    -1.800539873568
    C            2.663578972494    -2.082121380089    -0.731496893354
    C            2.379162139301    -0.631122201824    -2.441905648224
    C           -0.213811027602     0.162211822762     0.155573642978
    C            0.895647053786    -0.438820252467    -0.537680099685
    C           -2.490518021245     1.304642187900     1.548750135005
    N            3.069150245621    -1.662376972181    -1.937173845471
    O           -3.478627989675     1.805501225253     2.154947833354
    H           -1.253823431573     0.793832900021    -1.618009633320
    H            0.479348367577    -0.325518055333     2.132314069055
    H           -3.164408157397     1.759411502694    -0.446133251388
    H           -1.432661595948     0.638498162721     3.303275036477
    H            1.332246523428    -1.957460866492     0.927035251566
    H            0.847586896682     0.839773836727    -2.271176960740
    H            3.203064500808    -2.924128703714    -0.315785919025
    H            2.698692755503    -0.276430430620    -3.413987583865

*** Psi4 exiting successfully. Buy a developer a beer!
