                               Psi4 1.1 release

  ==> Input File <==

--------------------------------------------------------------------------

memory 5 Gb

molecule phepyrOH_zwitterion {
  symmetry C1
  0 1
  C      1.885   -1.036   -0.112
  C      2.878   -1.652   2.002
  C      0.807   -0.463   0.561
  C      1.800   -1.079   2.676
  C      5.340   -1.984   0.343
  C      3.818   -3.041   -1.196
  C      6.394   -2.567   -0.346
  C      4.910   -3.597   -1.846
  C      2.921   -1.631   0.608
  C      4.040   -2.226   -0.090
  C      0.764   -0.484   1.955
  N      6.152   -3.347   -1.408
  O      -0.227   0.042   2.574
  H      1.904   -1.011   -1.199
  H      3.678   -2.112   2.577
  H      0.011   -0.006   -0.025
  H      1.791   -1.108   3.764
  H      5.542   -1.352   1.203
  H      2.814   -3.246   -1.557
  H      7.433   -2.435   -0.080
  H      4.833   -4.241   -2.711
  H      6.940   -3.766   -1.900
  units Angstrom
}

dih_string = "1 9 10 5 135"
set optking fixed_dihedral = $dih_string

optimize('MP2/aug-cc-PVTZ')
--------------------------------------------------------------------------

    Molecular point group: c1
  Charge       = 0
  Multiplicity = 1
  Basis Set: AUG-CC-PVTZ
    Blend: AUG-CC-PVTZ
  Basis Set: (AUG-CC-PVTZ AUX)
    Blend: AUG-CC-PVTZ-JKFIT
  @DF-RHF Final Energy:  -551.20844954685447
    Total Energy =                       -551.2084495468544674
  Basis Set: (AUG-CC-PVTZ AUX)
    Blend: AUG-CC-PVTZ-RI
    Molecular point group: c1
  Basis Set: AUG-CC-PVTZ
    Blend: AUG-CC-PVTZ
  Basis Set: (AUG-CC-PVTZ AUX)
    Blend: AUG-CC-PVTZ-JKFIT
  Basis Set: (AUG-CC-PVTZ AUX)
    Blend: AUG-CC-PVTZ-JKFIT
	 Reference Energy          =    -551.2084495468544674 [Eh]
	 Singles Energy            =      -0.0000000000000009 [Eh]
	 Same-Spin Energy          =      -0.6066330367218339 [Eh]
	 Opposite-Spin Energy      =      -1.8386114694870273 [Eh]
	 Correlation Energy        =      -2.4452445062088621 [Eh]
	 Total Energy              =    -553.6536940530633046 [Eh]
	 SCS Total Energy          =    -553.6169943224795134 [Eh]
  @DF-RHF Final Energy:  -551.21832523641274
    Total Energy =                       -551.2183252364127384
  @DF-RHF Final Energy:  -551.22597622394051
    Total Energy =                       -551.2259762239405063
  @DF-RHF Final Energy:  -551.23093468646982
    Total Energy =                       -551.2309346864698227
  @DF-RHF Final Energy:  -551.23366360699401
    Total Energy =                       -551.2336636069940141
  @DF-RHF Final Energy:  -551.23532718835861
    Total Energy =                       -551.2353271883586103
  @DF-RHF Final Energy:  -551.23656412237915
    Total Energy =                       -551.2365641223791499
  @DF-RHF Final Energy:  -551.23749102715101
    Total Energy =                       -551.2374910271510089
  @DF-RHF Final Energy:  -551.23813822308341
    Total Energy =                       -551.2381382230834106
  @DF-RHF Final Energy:  -551.23851983007239
    Total Energy =                       -551.2385198300723914
  @DF-RHF Final Energy:  -551.23848455829000
    Total Energy =                       -551.2384845582899970
  @DF-RHF Final Energy:  -551.23840136500598
    Total Energy =                       -551.2384013650059842
  @DF-RHF Final Energy:  -551.23829011681380
    Total Energy =                       -551.2382901168138005
  @DF-RHF Final Energy:  -551.23822915337041
    Total Energy =                       -551.2382291533704120
  @DF-RHF Final Energy:  -551.23817946134784
    Total Energy =                       -551.2381794613478405
  @DF-RHF Final Energy:  -551.23796290315988
    Total Energy =                       -551.2379629031598824
  @DF-RHF Final Energy:  -551.23794801170004
    Total Energy =                       -551.2379480117000412
  Charge       = 0
  Multiplicity = 1
  Basis Set: AUG-CC-PVTZ
    Blend: AUG-CC-PVTZ
  Basis Set: (AUG-CC-PVTZ AUX)
    Blend: AUG-CC-PVTZ-JKFIT

    Orbital Energies (a.u.)
    -----------------------

    Doubly Occupied:

       1A    -20.471877     2A    -15.669002     3A    -11.335492
       4A    -11.335445     5A    -11.297792     6A    -11.275090
       7A    -11.267502     8A    -11.266274     9A    -11.235851
      10A    -11.233021    11A    -11.219813    12A    -11.199073
      13A    -11.197905    14A     -1.350805    15A     -1.306695
      16A     -1.168508    17A     -1.106236    18A     -1.094097
      19A     -1.008304    20A     -0.995722    21A     -0.910886
      22A     -0.895138    23A     -0.816961    24A     -0.811608
      25A     -0.792186    26A     -0.717984    27A     -0.713988
      28A     -0.680395    29A     -0.660011    30A     -0.632256
      31A     -0.623623    32A     -0.618500    33A     -0.611851
      34A     -0.579311    35A     -0.554612    36A     -0.551690
      37A     -0.520463    38A     -0.517082    39A     -0.485287
      40A     -0.468447    41A     -0.411814    42A     -0.398089
      43A     -0.366651    44A     -0.341679    45A     -0.243382

  @DF-RHF Final Energy:  -551.23801929925730

   => Energetics <=

    Nuclear Repulsion Energy =            699.1239713726613445
    One-Electron Energy =               -2134.8071785091697166
    Two-Electron Energy =                 884.4451878372510691
    DFT Exchange-Correlation Energy =       0.0000000000000000
    Empirical Dispersion Energy =           0.0000000000000000
    PCM Polarization Energy =               0.0000000000000000
    EFP Energy =                            0.0000000000000000
    Total Energy =                       -551.2380192992573029
  Basis Set: (AUG-CC-PVTZ AUX)
    Blend: AUG-CC-PVTZ-RI
    Molecular point group: c1
  Basis Set: AUG-CC-PVTZ
    Blend: AUG-CC-PVTZ
  Basis Set: (AUG-CC-PVTZ AUX)
    Blend: AUG-CC-PVTZ-JKFIT
  Basis Set: (AUG-CC-PVTZ AUX)
    Blend: AUG-CC-PVTZ-JKFIT
	 Reference Energy          =    -551.2380192992573029 [Eh]
	 Singles Energy            =      -0.0000000000000001 [Eh]
	 Same-Spin Energy          =      -0.6005856374082001 [Eh]
	 Opposite-Spin Energy      =      -1.8355217382159632 [Eh]
	 Correlation Energy        =      -2.4361073756241636 [Eh]
	 Total Energy              =    -553.6741266748814496 [Eh]

	 ================> DF-SCS-MP2 Energies <==================
	-----------------------------------------------------------
	 SCS Same-Spin Scale       =       0.3333333333333333 [-]
	 SCS Opposite-Spin Scale   =       1.2000000000000000 [-]
	 SCS Same-Spin Energy      =      -0.2001952124694000 [Eh]
	 SCS Opposite-Spin Energy  =      -2.2026260858591558 [Eh]
	 SCS Correlation Energy    =      -2.4028212983285560 [Eh]
	 SCS Total Energy          =    -553.6408405975859068 [Eh]
	-----------------------------------------------------------

  -Total Gradient:
     Atom            X                  Y                   Z
    ------   -----------------  -----------------  -----------------
       1        0.005210939939     0.010253518590     0.000578355212
       2       -0.000051876756     0.000039840824     0.000068137234
       3        0.000041829971    -0.000060277943    -0.000071442434
       4        0.000054076213    -0.000063551923    -0.000046603146
       5        0.000693089872     0.009477319467    -0.006892509041
       6        0.000049228752    -0.000039036373    -0.000066206647
       7       -0.000013514718     0.000030717050     0.000070071337
       8       -0.000032768651     0.000031105885     0.000021439190
       9       -0.007731898692    -0.010398611622    -0.004640094298
      10        0.001770995886    -0.009328603933     0.010951061881
      11       -0.000035086708     0.000047663732     0.000075704052
      12        0.000011486701    -0.000039972697    -0.000026541586
      13        0.000027750725    -0.000022593281    -0.000031052224
      14        0.000005518247     0.000029630298     0.000015934933
      15       -0.000011449549     0.000003216983     0.000004467194
      16        0.000005842851     0.000029935646     0.000009494527
      17       -0.000004631855     0.000011524720    -0.000005376240
      18        0.000010855594     0.000002294524    -0.000013660499
      19        0.000007123483    -0.000023285240     0.000007115686
      20       -0.000000652137     0.000012546167    -0.000012749028
      21       -0.000001322230     0.000007992303    -0.000002506254
      22       -0.000005536957    -0.000001373165     0.000006960153

  **** Optimization is complete! (in 18 steps) ****
    Final optimized geometry and variables:
    Molecular point group: c1

    Geometry (in Angstrom), charge = 0, multiplicity = 1:

    C           -1.403741937992     0.504675674680    -0.531921754358
    C           -0.301330551494     0.159660249163     1.604135587215
    C           -2.376070024416     1.228921698051     0.081268306839
    C           -1.295000779529     0.833901463065     2.239091244117
    C            2.111500752117    -0.397102691086    -0.013525674125
    C            0.666770165985    -1.257343779030    -1.726356030657
    C            3.182679910634    -0.831308695125    -0.726582068979
    C            1.759868202439    -1.685179450450    -2.408538850904
    C           -0.336118900907    -0.083513597241     0.202044841687
    C            0.774840773728    -0.624756170754    -0.452584962069
    C           -2.409750344456     1.417592494640     1.518098850895
    N            3.008570207791    -1.484725323388    -1.907282747194
    O           -3.315007083899     2.046732314461     2.087391501183
    H           -1.407538428956     0.419594841918    -1.610418086058
    H            0.504960888245    -0.267303101637     2.186326980683
    H           -3.149293878112     1.716511098567    -0.493765121392
    H           -1.286421976758     0.960448463558     3.311647429490
    H            2.294328535224     0.157496120324     0.892463165429
    H           -0.305076291056    -1.450663946700    -2.151354198811
    H            4.200663148316    -0.648410501806    -0.424536589851
    H            1.698777944906    -2.199994469465    -3.353032297223
    H            3.810085861426    -1.796508202350    -2.426868282678

*** Psi4 exiting successfully. Buy a developer a beer!
