                               Psi4 1.1 release

  ==> Input File <==

--------------------------------------------------------------------------

memory 5 Gb

molecule phepyrF {
  symmetry C1
  0 1
  C      1.885   -1.036   -0.112
  C      0.807   -0.463   0.561
  C      2.921   -1.631   0.608
  C      0.764   -0.484   1.955
  C      3.771   -3.514   3.338
  C      5.180   -1.622   2.868
  C      4.833   -4.063   4.037
  C      6.179   -2.256   3.588
  C      2.878   -1.652   2.002
  C      3.955   -2.270   2.745
  C      1.800   -1.079   2.676
  N      6.037   -3.464   4.178
  F      1.744   -1.089   4.016
  H      1.918   -1.020   -1.198
  H      0.000   -0.000   -0.000
  H      3.755   -2.073   0.068
  H      -0.076   -0.038   2.480
  H      2.830   -4.050   3.263
  H      5.360   -0.651   2.419
  H      4.741   -5.032   4.516
  H      7.152   -1.792   3.714
  units Angstrom
}

dih_string = "3 9 10 5 255"
set optking fixed_dihedral = $dih_string

optimize('MP2/aug-cc-PVTZ')
--------------------------------------------------------------------------

    Molecular point group: c1
  Charge       = 0
  Multiplicity = 1
  Basis Set: AUG-CC-PVTZ
    Blend: AUG-CC-PVTZ
  Basis Set: (AUG-CC-PVTZ AUX)
    Blend: AUG-CC-PVTZ-JKFIT
  @DF-RHF Final Energy:  -575.28289181869627
    Total Energy =                       -575.2828918186962710
  Basis Set: (AUG-CC-PVTZ AUX)
    Blend: AUG-CC-PVTZ-RI
    Molecular point group: c1
  Basis Set: AUG-CC-PVTZ
    Blend: AUG-CC-PVTZ
  Basis Set: (AUG-CC-PVTZ AUX)
    Blend: AUG-CC-PVTZ-JKFIT
  Basis Set: (AUG-CC-PVTZ AUX)
    Blend: AUG-CC-PVTZ-JKFIT
	 Reference Energy          =    -575.2828918186962710 [Eh]
	 Singles Energy            =      -0.0000000000000003 [Eh]
	 Same-Spin Energy          =      -0.6075388482851369 [Eh]
	 Opposite-Spin Energy      =      -1.8318641581267654 [Eh]
	 Correlation Energy        =      -2.4394030064119030 [Eh]
	 Total Energy              =    -577.7222948251081789 [Eh]
	 SCS Total Energy          =    -577.6836417578767851 [Eh]
  @DF-RHF Final Energy:  -575.28857721102509
    Total Energy =                       -575.2885772110250855
  @DF-RHF Final Energy:  -575.28960450432453
    Total Energy =                       -575.2896045043245294
  @DF-RHF Final Energy:  -575.28951880528030
    Total Energy =                       -575.2895188052802951
  @DF-RHF Final Energy:  -575.28943918792902
    Total Energy =                       -575.2894391879290197
  @DF-RHF Final Energy:  -575.28945793983530
    Total Energy =                       -575.2894579398353017
  Charge       = 0
  Multiplicity = 1
  Basis Set: AUG-CC-PVTZ
    Blend: AUG-CC-PVTZ
  Basis Set: (AUG-CC-PVTZ AUX)
    Blend: AUG-CC-PVTZ-JKFIT

    Orbital Energies (a.u.)
    -----------------------

    Doubly Occupied:

       1A    -26.315771     2A    -15.565035     3A    -11.336307
       4A    -11.274166     5A    -11.273628     6A    -11.268729
       7A    -11.260530     8A    -11.256110     9A    -11.255637
      10A    -11.250564    11A    -11.246865    12A    -11.240501
      13A    -11.239792    14A     -1.634538    15A     -1.261346
      16A     -1.185666    17A     -1.115164    18A     -1.037999
      19A     -1.035957    20A     -1.028766    21A     -0.891749
      22A     -0.865906    23A     -0.855094    24A     -0.825673
      25A     -0.755246    26A     -0.723452    27A     -0.711333
      28A     -0.702592    29A     -0.671301    30A     -0.669170
      31A     -0.652504    32A     -0.626169    33A     -0.612708
      34A     -0.599306    35A     -0.591831    36A     -0.549414
      37A     -0.536146    38A     -0.529715    39A     -0.517638
      40A     -0.510821    41A     -0.419710    42A     -0.388511
      43A     -0.357151    44A     -0.348701    45A     -0.346626

  @DF-RHF Final Energy:  -575.28945382842744

   => Energetics <=

    Nuclear Repulsion Energy =            714.9815534854844827
    One-Electron Energy =               -2201.8589379471768552
    Two-Electron Energy =                 911.5879306332649321
    DFT Exchange-Correlation Energy =       0.0000000000000000
    Empirical Dispersion Energy =           0.0000000000000000
    PCM Polarization Energy =               0.0000000000000000
    EFP Energy =                            0.0000000000000000
    Total Energy =                       -575.2894538284274404
  Basis Set: (AUG-CC-PVTZ AUX)
    Blend: AUG-CC-PVTZ-RI
    Molecular point group: c1
  Basis Set: AUG-CC-PVTZ
    Blend: AUG-CC-PVTZ
  Basis Set: (AUG-CC-PVTZ AUX)
    Blend: AUG-CC-PVTZ-JKFIT
  Basis Set: (AUG-CC-PVTZ AUX)
    Blend: AUG-CC-PVTZ-JKFIT
	 Reference Energy          =    -575.2894538284274404 [Eh]
	 Singles Energy            =      -0.0000000000000001 [Eh]
	 Same-Spin Energy          =      -0.6066808574475924 [Eh]
	 Opposite-Spin Energy      =      -1.8293703377171617 [Eh]
	 Correlation Energy        =      -2.4360511951647541 [Eh]
	 Total Energy              =    -577.7255050235921772 [Eh]

	 ================> DF-SCS-MP2 Energies <==================
	-----------------------------------------------------------
	 SCS Same-Spin Scale       =       0.3333333333333333 [-]
	 SCS Opposite-Spin Scale   =       1.2000000000000000 [-]
	 SCS Same-Spin Energy      =      -0.2022269524825308 [Eh]
	 SCS Opposite-Spin Energy  =      -2.1952444052605942 [Eh]
	 SCS Correlation Energy    =      -2.3974713577431248 [Eh]
	 SCS Total Energy          =    -577.6869251861705834 [Eh]
	-----------------------------------------------------------

  -Total Gradient:
     Atom            X                  Y                   Z
    ------   -----------------  -----------------  -----------------
       1       -0.000008819253    -0.000009613008     0.000013624771
       2        0.000013130931     0.000011367091    -0.000011549827
       3       -0.000958925687    -0.001691244227    -0.000092243522
       4       -0.000011647211     0.000011596866    -0.000008091504
       5        0.000646561468    -0.000868955616    -0.001616337695
       6       -0.000007238150     0.000028267698     0.000007814188
       7        0.000047061519     0.000015960253    -0.000005316318
       8        0.000018469466    -0.000070180301    -0.000061930689
       9        0.001792834776     0.002107945141    -0.000651815077
      10       -0.001481111562     0.000448388360     0.002352862692
      11       -0.000003490737    -0.000036787274    -0.000038255737
      12       -0.000014896101     0.000012964467     0.000040041904
      13       -0.000009776404     0.000018942096     0.000052656685
      14        0.000002922547     0.000001754087    -0.000008169648
      15       -0.000009934592     0.000004334171    -0.000006241451
      16        0.000015402406    -0.000007088367    -0.000001080064
      17       -0.000003004834     0.000000251026     0.000012484363
      18       -0.000010572860    -0.000001547593     0.000002199315
      19       -0.000006222803     0.000012489017     0.000003318890
      20       -0.000001121801     0.000000341502    -0.000004089648
      21       -0.000009621131     0.000010814612     0.000020118376

  **** Optimization is complete! (in 7 steps) ****
    Final optimized geometry and variables:
    Molecular point group: c1

    Geometry (in Angstrom), charge = 0, multiplicity = 1:

    C           -1.369074214618     0.866515704560    -2.662809930788
    C           -2.462598644223     1.408007902250    -2.001156424181
    C           -0.335231702180     0.295203207044    -1.936225549000
    C           -2.524346279409     1.375911532507    -0.615574587410
    C            0.531475701602    -1.607718435797     0.834548875560
    C            1.957649829633     0.224850458434     0.334300613166
    C            1.593117498655    -2.182867261095     1.515413487263
    C            2.960406770148    -0.428721493965     1.034863082382
    C           -0.369983938513     0.258781218726    -0.544181425063
    C            0.706891265312    -0.369697634890     0.229607042400
    C           -1.482653929538     0.799861101162     0.082350916486
    N            2.796873490254    -1.615302436302     1.623222856195
    F           -1.543780688210     0.768215710365     1.426003357964
    H           -1.324176893974     0.885136578713    -3.740225108770
    H           -3.270826206549     1.853917291298    -2.559566916919
    H            0.516750848944    -0.135046809898    -2.441208837025
    H           -3.359849205574     1.787787850576    -0.073392885402
    H           -0.420319157404    -2.113714316271     0.775942911764
    H            2.144223702464     1.186275374649    -0.120282023405
    H            1.474449807319    -3.145127188982     1.993161936615
    H            3.938815162458     0.020921671599     1.129448954360

*** Psi4 exiting successfully. Buy a developer a beer!
