                               Psi4 1.1 release

  ==> Input File <==

--------------------------------------------------------------------------

memory 5 Gb

molecule phepyrOH_cation {
  symmetry C1
  1 1
  C      1.885   -1.036   -0.112
  C      2.878   -1.652   2.002
  C      0.807   -0.463   0.561
  C      1.800   -1.079   2.676
  C      4.716   -3.305   0.470
  C      4.441   -1.719   -1.322
  C      5.786   -3.855   -0.222
  C      5.518   -2.309   -1.969
  C      2.921   -1.631   0.608
  C      4.040   -2.225   -0.090
  C      0.764   -0.484   1.955
  N      6.152   -3.347   -1.407
  O      -0.288   0.076   2.612
  H      1.904   -1.012   -1.199
  H      3.678   -2.112   2.578
  H      0.003   -0.001   -0.006
  H      1.772   -1.098   3.762
  H      4.425   -3.721   1.430
  H      3.932   -0.877   -1.783
  H      6.368   -4.693   0.135
  H      5.898   -1.982   -2.927
  H      6.941   -3.765   -1.899
  H      -0.175   -0.018   3.571
  units Angstrom
}

dih_string = "1 9 10 5 210"
set optking fixed_dihedral = $dih_string

optimize('MP2/aug-cc-PVTZ')
--------------------------------------------------------------------------

    Molecular point group: c1
  Charge       = 1
  Multiplicity = 1
  Basis Set: AUG-CC-PVTZ
    Blend: AUG-CC-PVTZ
  Basis Set: (AUG-CC-PVTZ AUX)
    Blend: AUG-CC-PVTZ-JKFIT
  @DF-RHF Final Energy:  -551.67604248974749
    Total Energy =                       -551.6760424897474877
  Basis Set: (AUG-CC-PVTZ AUX)
    Blend: AUG-CC-PVTZ-RI
    Molecular point group: c1
  Basis Set: AUG-CC-PVTZ
    Blend: AUG-CC-PVTZ
  Basis Set: (AUG-CC-PVTZ AUX)
    Blend: AUG-CC-PVTZ-JKFIT
  Basis Set: (AUG-CC-PVTZ AUX)
    Blend: AUG-CC-PVTZ-JKFIT
	 Reference Energy          =    -551.6760424897474877 [Eh]
	 Singles Energy            =      -0.0000000000000003 [Eh]
	 Same-Spin Energy          =      -0.5966695096498128 [Eh]
	 Opposite-Spin Energy      =      -1.8256381275538920 [Eh]
	 Correlation Energy        =      -2.4223076372037053 [Eh]
	 Total Energy              =    -554.0983501269512317 [Eh]
	 SCS Total Energy          =    -554.0656980793620505 [Eh]
  @DF-RHF Final Energy:  -551.68160616449529
    Total Energy =                       -551.6816061644952924
  @DF-RHF Final Energy:  -551.68301069967799
    Total Energy =                       -551.6830106996779932
  @DF-RHF Final Energy:  -551.68295654129986
    Total Energy =                       -551.6829565412998591
  Charge       = 1
  Multiplicity = 1
  Basis Set: AUG-CC-PVTZ
    Blend: AUG-CC-PVTZ
  Basis Set: (AUG-CC-PVTZ AUX)
    Blend: AUG-CC-PVTZ-JKFIT

    Orbital Energies (a.u.)
    -----------------------

    Doubly Occupied:

       1A    -20.709009     2A    -15.826681     3A    -11.478739
       4A    -11.478595     5A    -11.448805     6A    -11.435724
       7A    -11.408648     8A    -11.408307     9A    -11.380266
      10A    -11.376780    11A    -11.372151    12A    -11.355774
      13A    -11.349019    14A     -1.532236    15A     -1.505643
      16A     -1.318327    17A     -1.266458    18A     -1.236767
      19A     -1.157244    20A     -1.156433    21A     -1.061656
      22A     -1.057487    23A     -0.979960    24A     -0.961059
      25A     -0.953958    26A     -0.873316    27A     -0.861642
      28A     -0.855410    29A     -0.819663    30A     -0.799759
      31A     -0.784139    32A     -0.770527    33A     -0.758217
      34A     -0.731508    35A     -0.723317    36A     -0.712794
      37A     -0.702826    38A     -0.687446    39A     -0.662236
      40A     -0.637722    41A     -0.619483    42A     -0.569154
      43A     -0.538400    44A     -0.474456    45A     -0.436330

  @DF-RHF Final Energy:  -551.68295706468916

   => Energetics <=

    Nuclear Repulsion Energy =            713.6865728827885960
    One-Electron Energy =               -2150.2709192126180824
    Two-Electron Energy =                 884.9013892651403239
    DFT Exchange-Correlation Energy =       0.0000000000000000
    Empirical Dispersion Energy =           0.0000000000000000
    PCM Polarization Energy =               0.0000000000000000
    EFP Energy =                            0.0000000000000000
    Total Energy =                       -551.6829570646891625
  Basis Set: (AUG-CC-PVTZ AUX)
    Blend: AUG-CC-PVTZ-RI
    Molecular point group: c1
  Basis Set: AUG-CC-PVTZ
    Blend: AUG-CC-PVTZ
  Basis Set: (AUG-CC-PVTZ AUX)
    Blend: AUG-CC-PVTZ-JKFIT
  Basis Set: (AUG-CC-PVTZ AUX)
    Blend: AUG-CC-PVTZ-JKFIT
	 Reference Energy          =    -551.6829570646891625 [Eh]
	 Singles Energy            =      -0.0000000000000011 [Eh]
	 Same-Spin Energy          =      -0.5957809650585159 [Eh]
	 Opposite-Spin Energy      =      -1.8234718418604230 [Eh]
	 Correlation Energy        =      -2.4192528069189398 [Eh]
	 Total Energy              =    -554.1022098716081246 [Eh]

	 ================> DF-SCS-MP2 Energies <==================
	-----------------------------------------------------------
	 SCS Same-Spin Scale       =       0.3333333333333333 [-]
	 SCS Opposite-Spin Scale   =       1.2000000000000000 [-]
	 SCS Same-Spin Energy      =      -0.1985936550195053 [Eh]
	 SCS Opposite-Spin Energy  =      -2.1881662102325077 [Eh]
	 SCS Correlation Energy    =      -2.3867598652520137 [Eh]
	 SCS Total Energy          =    -554.0697169299411371 [Eh]
	-----------------------------------------------------------

  -Total Gradient:
     Atom            X                  Y                   Z
    ------   -----------------  -----------------  -----------------
       1       -0.000288323799    -0.000806787503     0.000029266952
       2        0.000032215741     0.000040249499     0.000071384862
       3       -0.000094626452     0.000108707404     0.000062149752
       4        0.000051677252    -0.000096593277    -0.000039465644
       5       -0.000445164666    -0.000568749402    -0.000440857017
       6        0.000042105997    -0.000042143100    -0.000022999491
       7       -0.000044137787    -0.000063430524     0.000080914177
       8       -0.000011432674     0.000081265792    -0.000029374168
       9        0.000269431349     0.000850386904    -0.000284855945
      10        0.000538815427     0.000482917956     0.000627101143
      11       -0.000025896242    -0.000026749675     0.000015376443
      12       -0.000000664974     0.000009110887    -0.000009074360
      13        0.000022843584     0.000011704846    -0.000019959198
      14       -0.000022739522    -0.000003941167    -0.000005198274
      15       -0.000007975446     0.000013146710    -0.000002808176
      16        0.000039094355    -0.000023201687    -0.000020861816
      17       -0.000014683222     0.000016430266    -0.000010474970
      18       -0.000014716085     0.000018548481    -0.000004760931
      19       -0.000018588312    -0.000004036704     0.000018221399
      20        0.000006726499     0.000014257264    -0.000008478500
      21       -0.000004599803    -0.000016223073     0.000005522534
      22       -0.000010843751     0.000007748044     0.000006782154
      23        0.000001482508    -0.000002617929    -0.000017550921

  **** Optimization is complete! (in 5 steps) ****
    Final optimized geometry and variables:
    Molecular point group: c1

    Geometry (in Angstrom), charge = 1, multiplicity = 1:

    C           -1.253274996327     0.726647163679    -0.618266548941
    C           -0.354483073860     0.145821938824     1.536862371741
    C           -2.351225255258     1.295208941760    -0.011583564255
    C           -1.443551515915     0.730903479561     2.149610761531
    C            1.586708222173    -1.545757621205     0.089683143749
    C            1.371192229207    -0.026909487005    -1.740843723412
    C            2.663315906102    -2.120821929988    -0.535713709584
    C            2.449365237247    -0.624433380944    -2.342040348899
    C           -0.235879320514     0.141104775325     0.144085307677
    C            0.904094235235    -0.470642586064    -0.495892144333
    C           -2.451403902828     1.305723091693     1.378161041020
    N            3.064717828904    -1.648903502404    -1.727991276154
    O           -3.543989636938     1.885810575205     1.901148974778
    H           -1.211711698781     0.700343307119    -1.696779359224
    H            0.430556023532    -0.265052931301     2.153821628450
    H           -3.149006769663     1.728669488812    -0.593683014581
    H           -1.510672878894     0.749443942742     3.227659394305
    H            1.259329045144    -1.959416129090     1.029209511906
    H            0.909654841483     0.812381981797    -2.234428493966
    H            3.213315352510    -2.953853824363    -0.130811709948
    H            2.851517242954    -0.312458550255    -3.291462175315
    H            3.859023104917    -2.081824788624    -2.180770937967
    H           -3.524429723903     1.839605977186     2.863647736956

*** Psi4 exiting successfully. Buy a developer a beer!
