                              Psi4 1.0.0 Driver

  ==> Input File <==

--------------------------------------------------------------------------

memory 1000 mb

molecule butane {
  symmetry C1
  0 1
  H      1.604   0.760   -8.260
  H      1.745   2.388   -8.880
  H      2.043   1.024   -9.930
  C      2.142   1.395   -8.932
  H      4.169   2.051   -9.210
  H      3.731   1.788   -7.539
  C      3.631   1.416   -8.537
  H      3.682   -0.566   -9.364
  H      5.243   0.033   -8.859
  C      4.203   -0.012   -8.612
  H      4.426   -1.699   -7.302
  H      2.989   -0.753   -7.002
  H      4.550   -0.154   -6.497
  C      4.029   -0.708   -7.250
  units Angstrom
}

dih_string = "4 7 10 14 270"
set optking fixed_dihedral = $dih_string

optimize('MP2/6-31G(d)')
--------------------------------------------------------------------------

    Molecular point group: c1
  Charge       = 0
  Multiplicity = 1
  Basis Set: 6-31G(D)
  Basis Set:
  @DF-RHF Final Energy:  -157.29044849777523
    Total Energy =                       -157.2904484977753441
  Basis Set:
    Molecular point group: c1
  Basis Set: 6-31G(D)
  Basis Set:
  Basis Set:
	 Reference Energy          =    -157.2904484977752304 [Eh]
	 Singles Energy            =      -0.0000000000000000 [Eh]
	 Same-Spin Energy          =      -0.1245604041442917 [Eh]
	 Opposite-Spin Energy      =      -0.4204365063430087 [Eh]
	 Correlation Energy        =      -0.5449969104873004 [Eh]
	 Total Energy              =    -157.8354454082625296 [Eh]
	 SCS Total Energy          =    -157.8364924401016083 [Eh]
  Basis Set: 6-31G(D)
  Basis Set:
  @DF-RHF Final Energy:  -157.29338663162710
    Total Energy =                       -157.2933866316271860
  Basis Set:
  Basis Set: 6-31G(D)
  Basis Set:
  @DF-RHF Final Energy:  -157.29426283755365
    Total Energy =                       -157.2942628375532479
  @DF-RHF Final Energy:  -157.29457177997435
    Total Energy =                       -157.2945717799743477
  @DF-RHF Final Energy:  -157.29464207339080
    Total Energy =                       -157.2946420733909179
  @DF-RHF Final Energy:  -157.29465578350190
    Total Energy =                       -157.2946557835018382
  @DF-RHF Final Energy:  -157.29464192202889
    Total Energy =                       -157.2946419220290011
	 Singles Energy            =      -0.0000000000000000 [Eh]
	 Same-Spin Energy          =      -0.1244592835769128 [Eh]
	 Opposite-Spin Energy      =      -0.4224250675331765 [Eh]
	 Correlation Energy        =      -0.5468843511100893 [Eh]
	 Total Energy              =    -157.8415262731389817 [Eh]
	 SCS Total Energy          =    -157.8430384309276633 [Eh]
  Charge       = 0
  Multiplicity = 1
  Basis Set: 6-31G(D)
  Basis Set:

    Orbital Energies (a.u.)
    -----------------------

    Doubly Occupied:

       1A    -11.215674     2A    -11.215094     3A    -11.210336
       4A    -11.210333     5A     -1.069494     6A     -0.976785
       7A     -0.865795     8A     -0.780659     9A     -0.623127
      10A     -0.614351    11A     -0.576113    12A     -0.538446
      13A     -0.520528    14A     -0.505321    15A     -0.466604
      16A     -0.455352    17A     -0.453159

  @DF-RHF Final Energy:  -157.29464644940020

   => Energetics <=

    Nuclear Repulsion Energy =            131.9910591951685888
    One-Electron Energy =                -471.9770705060102500
    Two-Electron Energy =                 182.6913648614414569
    DFT Exchange-Correlation Energy =       0.0000000000000000
    Empirical Dispersion Energy =           0.0000000000000000
    PCM Polarization Energy =               0.0000000000000000
    EFP Energy =                            0.0000000000000000
    Total Energy =                       -157.2946464494002043
  Basis Set:
    Molecular point group: c1
  Basis Set: 6-31G(D)
  Basis Set:
  Basis Set:
	 Reference Energy          =    -157.2946464494002043 [Eh]
	 Singles Energy            =      -0.0000000000000000 [Eh]
	 Same-Spin Energy          =      -0.1244572244553576 [Eh]
	 Opposite-Spin Energy      =      -0.4224231758880649 [Eh]
	 Correlation Energy        =      -0.5468804003434226 [Eh]
	 Total Energy              =    -157.8415268497436159 [Eh]

	 ================> DF-SCS-MP2 Energies <==================
	-----------------------------------------------------------
	 SCS Same-Spin Scale       =       0.3333333333333333 [-]
	 SCS Opposite-Spin Scale   =       1.2000000000000000 [-]
	 SCS Same-Spin Energy      =      -0.0414857414851192 [Eh]
	 SCS Opposite-Spin Energy  =      -0.5069078110656779 [Eh]
	 SCS Correlation Energy    =      -0.5483935525507971 [Eh]
	 SCS Total Energy          =    -157.8430400019510103 [Eh]
	-----------------------------------------------------------

  -Total Gradient:
     Atom            X                  Y                   Z
    ------   -----------------  -----------------  -----------------
       1       -0.000007345299    -0.000001085530    -0.000000029728
       2       -0.000002147969     0.000004736772     0.000001212818
       3        0.000006248313     0.000002734636    -0.000000945521
       4        0.000756645872     0.000310274786    -0.002732729230
       5       -0.000003713703     0.000000714983     0.000000890747
       6       -0.000004453748     0.000000504103    -0.000012437120
       7       -0.000086178885     0.000008752183     0.004112771208
       8        0.000008451656     0.000001236141     0.000010205701
       9       -0.000001561124    -0.000002992082     0.000002137090
      10       -0.003169875955    -0.001410149755    -0.002209565464
      11        0.000000980194    -0.000004909986    -0.000000629420
      12       -0.000003092234    -0.000003397275     0.000006063539
      13        0.000004440672     0.000001886683    -0.000005000331
      14        0.002501602209     0.001091694341     0.000828055712

  **** Optimization is complete! (in 8 steps) ****
    Final optimized geometry and variables:
    Molecular point group: c1

    Geometry (in Angstrom), charge = 0, multiplicity = 1:

    H           -1.955379429776     0.245528614655     0.003881840871
    H           -1.785967059816     1.890289716918    -0.617861652674
    H           -1.475456595895     0.507792795993    -1.676692425139
    C           -1.359960832416     0.883696353184    -0.656184234252
    H            0.663571241853     1.517817562194    -0.952533556857
    H            0.231738126993     1.342731952616     0.737102925921
    C            0.111234800085     0.882609101211    -0.250607961348
    H            0.264436062828    -1.129261335164    -1.027032728328
    H            1.790577930276    -0.461956655249    -0.481504656087
    C            0.723857205076    -0.523323952025    -0.237362711308
    H            0.984599535007    -2.235065002943     1.086124936685
    H           -0.471028710639    -1.289452740146     1.413947170034
    H            1.112233168562    -0.664065411763     1.888936064468
    C            0.578676247150    -1.219831719148     1.112713460253

*** Psi4 exiting successfully. Buy a developer a beer!
