                               Psi4 1.1 release

  ==> Input File <==

--------------------------------------------------------------------------

memory 5 Gb

molecule phepyrOH_neutral {
  symmetry C1
  0 1
  C      1.885   -1.036   -0.112
  C      2.878   -1.652   2.002
  C      0.807   -0.463   0.561
  C      1.800   -1.079   2.676
  C      5.329   -1.754   0.128
  C      3.829   -3.271   -0.982
  C      6.367   -2.358   -0.564
  C      4.934   -3.807   -1.624
  C      2.921   -1.631   0.608
  C      4.040   -2.225   -0.090
  C      0.764   -0.484   1.955
  N      6.201   -3.376   -1.438
  O      -0.288   0.076   2.612
  H      1.904   -1.012   -1.199
  H      3.678   -2.112   2.578
  H      0.003   -0.001   -0.006
  H      1.772   -1.098   3.762
  H      5.533   -0.940   0.817
  H      2.837   -3.665   -1.178
  H      7.391   -2.028   -0.427
  H      4.823   -4.624   -2.330
  H      -0.175   -0.018   3.571
  units Angstrom
}

dih_string = "1 9 10 5 120"
set optking fixed_dihedral = $dih_string

optimize('MP2/aug-cc-PVTZ')
--------------------------------------------------------------------------

    Molecular point group: c1
  Charge       = 0
  Multiplicity = 1
  Basis Set: AUG-CC-PVTZ
    Blend: AUG-CC-PVTZ
  Basis Set: (AUG-CC-PVTZ AUX)
    Blend: AUG-CC-PVTZ-JKFIT
  @DF-RHF Final Energy:  -551.28619780300448
    Total Energy =                       -551.2861978030044838
  Basis Set: (AUG-CC-PVTZ AUX)
    Blend: AUG-CC-PVTZ-RI
    Molecular point group: c1
  Basis Set: AUG-CC-PVTZ
    Blend: AUG-CC-PVTZ
  Basis Set: (AUG-CC-PVTZ AUX)
    Blend: AUG-CC-PVTZ-JKFIT
  Basis Set: (AUG-CC-PVTZ AUX)
    Blend: AUG-CC-PVTZ-JKFIT
	 Reference Energy          =    -551.2861978030044838 [Eh]
	 Singles Energy            =      -0.0000000000000002 [Eh]
	 Same-Spin Energy          =      -0.6044486413627592 [Eh]
	 Opposite-Spin Energy      =      -1.8300465415370468 [Eh]
	 Correlation Energy        =      -2.4344951828998060 [Eh]
	 Total Energy              =    -553.7206929859042930 [Eh]
	 SCS Total Energy          =    -553.6837365333032039 [Eh]
  @DF-RHF Final Energy:  -551.29148984039239
    Total Energy =                       -551.2914898403923871
  @DF-RHF Final Energy:  -551.29247479216940
    Total Energy =                       -551.2924747921694006
  @DF-RHF Final Energy:  -551.29238682419157
    Total Energy =                       -551.2923868241915670
  @DF-RHF Final Energy:  -551.29236856423358
    Total Energy =                       -551.2923685642335840
  @DF-RHF Final Energy:  -551.29237838076108
    Total Energy =                       -551.2923783807610789
  Charge       = 0
  Multiplicity = 1
  Basis Set: AUG-CC-PVTZ
    Blend: AUG-CC-PVTZ
  Basis Set: (AUG-CC-PVTZ AUX)
    Blend: AUG-CC-PVTZ-JKFIT

    Orbital Energies (a.u.)
    -----------------------

    Doubly Occupied:

       1A    -20.600448     2A    -15.561269     3A    -11.311622
       4A    -11.271618     5A    -11.271535     6A    -11.263261
       7A    -11.251581     8A    -11.249656     9A    -11.244646
      10A    -11.243023    11A    -11.236578    12A    -11.235869
      13A    -11.235533    14A     -1.417634    15A     -1.258111
      16A     -1.174284    17A     -1.104964    18A     -1.036851
      19A     -1.031180    20A     -1.012555    21A     -0.880168
      22A     -0.867706    23A     -0.848957    24A     -0.811858
      25A     -0.747059    26A     -0.725427    27A     -0.682335
      28A     -0.662115    29A     -0.657870    30A     -0.637051
      31A     -0.615715    32A     -0.603243    33A     -0.602078
      34A     -0.595343    35A     -0.581460    36A     -0.541735
      37A     -0.531114    38A     -0.522403    39A     -0.504751
      40A     -0.492316    41A     -0.416941    42A     -0.387656
      43A     -0.355999    44A     -0.347103    45A     -0.316495

  @DF-RHF Final Energy:  -551.29237343292448

   => Energetics <=

    Nuclear Repulsion Energy =            697.5995518269467084
    One-Electron Energy =               -2131.8896267712671033
    Two-Electron Energy =                 882.9977015113959169
    DFT Exchange-Correlation Energy =       0.0000000000000000
    Empirical Dispersion Energy =           0.0000000000000000
    PCM Polarization Energy =               0.0000000000000000
    EFP Energy =                            0.0000000000000000
    Total Energy =                       -551.2923734329244780
  Basis Set: (AUG-CC-PVTZ AUX)
    Blend: AUG-CC-PVTZ-RI
    Molecular point group: c1
  Basis Set: AUG-CC-PVTZ
    Blend: AUG-CC-PVTZ
  Basis Set: (AUG-CC-PVTZ AUX)
    Blend: AUG-CC-PVTZ-JKFIT
  Basis Set: (AUG-CC-PVTZ AUX)
    Blend: AUG-CC-PVTZ-JKFIT
	 Reference Energy          =    -551.2923734329244780 [Eh]
	 Singles Energy            =      -0.0000000000000002 [Eh]
	 Same-Spin Energy          =      -0.6036940851418100 [Eh]
	 Opposite-Spin Energy      =      -1.8279048232137571 [Eh]
	 Correlation Energy        =      -2.4315989083555669 [Eh]
	 Total Energy              =    -553.7239723412800458 [Eh]

	 ================> DF-SCS-MP2 Energies <==================
	-----------------------------------------------------------
	 SCS Same-Spin Scale       =       0.3333333333333333 [-]
	 SCS Opposite-Spin Scale   =       1.2000000000000000 [-]
	 SCS Same-Spin Energy      =      -0.2012313617139367 [Eh]
	 SCS Opposite-Spin Energy  =      -2.1934857878565084 [Eh]
	 SCS Correlation Energy    =      -2.3947171495704449 [Eh]
	 SCS Total Energy          =    -553.6870905824948750 [Eh]
	-----------------------------------------------------------

  -Total Gradient:
     Atom            X                  Y                   Z
    ------   -----------------  -----------------  -----------------
       1        0.001521543795     0.002803543539     0.000121893008
       2       -0.000000752676     0.000015075656     0.000048616141
       3       -0.000021440521     0.000000250997    -0.000013588744
       4        0.000009824799     0.000000822018    -0.000001643632
       5       -0.000376560260     0.002133769410    -0.002401413894
       6       -0.000007061143    -0.000006960951    -0.000033319076
       7        0.000015982461    -0.000038910122    -0.000016893450
       8        0.000036452828     0.000016279725    -0.000013798372
       9       -0.002464987901    -0.003132100943    -0.001422495546
      10        0.001311154594    -0.001813263104     0.003705886534
      11        0.000017359848    -0.000003833795     0.000013158083
      12       -0.000016560449     0.000003774580     0.000008923452
      13       -0.000016016266     0.000008357689    -0.000012424616
      14        0.000006638327     0.000004433785    -0.000005561646
      15        0.000007249324    -0.000001968547    -0.000009307690
      16        0.000000948215     0.000002328280     0.000001208462
      17       -0.000005360730    -0.000001204078     0.000007297031
      18       -0.000008652558     0.000008581766     0.000001089981
      19       -0.000004243765     0.000007812662     0.000008195632
      20       -0.000004211602     0.000006988649     0.000000371504
      21       -0.000002953506    -0.000011774312     0.000000432402
      22        0.000001647171    -0.000002002901     0.000013374445

  **** Optimization is complete! (in 7 steps) ****
    Final optimized geometry and variables:
    Molecular point group: c1

    Geometry (in Angstrom), charge = 0, multiplicity = 1:

    C           -1.287135915745     0.650778092792    -0.549329114865
    C           -0.273497602750     0.116078282304     1.552483911713
    C           -2.346275197381     1.253486785633     0.106749493985
    C           -1.333390660493     0.713234606743     2.217345065266
    C            2.193822598477    -0.068743337300    -0.329344233627
    C            0.726682726230    -1.521671464837    -1.497579816715
    C            3.239581720494    -0.628039473038    -1.047200633291
    C            1.832854206464    -2.018618975504    -2.169118052949
    C           -0.242708420915     0.062814641338     0.162158583770
    C            0.897912954006    -0.527471177419    -0.540263616267
    C           -2.372928636248     1.282524993723     1.494176022489
    N            3.079894743805    -1.591012132707    -1.958060075586
    O           -3.442100534558     1.886128041075     2.084638008571
    H           -1.263044977979     0.642859099857    -1.629110717087
    H            0.530996543176    -0.328053203212     2.120015282158
    H           -3.153957278862     1.713691458347    -0.440768871930
    H           -1.352084851172     0.734009958769     3.298328871254
    H            2.381500535992     0.721210771863     0.382386515169
    H           -0.258388624022    -1.911871244714    -1.705589539395
    H            4.251523589468    -0.280665736351    -0.892050297571
    H            1.714152073565    -2.798244954859    -2.908661286022
    H           -3.337788630513     1.842566496337     3.039877726586

*** Psi4 exiting successfully. Buy a developer a beer!
