                               Psi4 1.1 release

  ==> Input File <==

--------------------------------------------------------------------------

memory 5 Gb

molecule phepyrFOH_neutral {
  symmetry C1
  0 1
  C      1.885   -1.036   -0.112
  C      0.807   -0.463   0.561
  C      3.825   -3.269   -0.988
  C      5.328   -1.753   0.119
  C      1.800   -1.079   2.676
  C      4.927   -3.802   -1.637
  C      6.363   -2.354   -0.579
  C      2.921   -1.631   0.608
  C      4.038   -2.225   -0.095
  C      0.764   -0.484   1.955
  C      2.878   -1.652   2.002
  N      6.195   -3.370   -1.455
  O      -0.289   0.076   2.612
  F      3.866   -2.220   2.709
  H      1.904   -1.012   -1.199
  H      0.002   -0.002   -0.006
  H      2.833   -3.663   -1.183
  H      5.532   -0.940   0.809
  H      1.772   -1.099   3.762
  H      4.814   -4.616   -2.345
  H      7.387   -2.023   -0.446
  H      -0.877   -0.616   2.956
  units Angstrom
}

dih_string = "2 10 13 22 105"
set optking fixed_dihedral = $dih_string

optimize('MP2/aug-cc-PVTZ')
--------------------------------------------------------------------------

    Molecular point group: c1
  Charge       = 0
  Multiplicity = 1
  Basis Set: AUG-CC-PVTZ
    Blend: AUG-CC-PVTZ
  Basis Set: (AUG-CC-PVTZ AUX)
    Blend: AUG-CC-PVTZ-JKFIT
  @DF-RHF Final Energy:  -650.16990197790687
    Total Energy =                       -650.1699019779068749
  Basis Set: (AUG-CC-PVTZ AUX)
    Blend: AUG-CC-PVTZ-RI
    Molecular point group: c1
  Basis Set: AUG-CC-PVTZ
    Blend: AUG-CC-PVTZ
  Basis Set: (AUG-CC-PVTZ AUX)
    Blend: AUG-CC-PVTZ-JKFIT
  Basis Set: (AUG-CC-PVTZ AUX)
    Blend: AUG-CC-PVTZ-JKFIT
	 Reference Energy          =    -650.1699019779068749 [Eh]
	 Singles Energy            =      -0.0000000000000002 [Eh]
	 Same-Spin Energy          =      -0.6770766999004546 [Eh]
	 Opposite-Spin Energy      =      -2.0188032425374987 [Eh]
	 Correlation Energy        =      -2.6958799424379536 [Eh]
	 Total Energy              =    -652.8657819203448298 [Eh]
	 SCS Total Energy          =    -652.8181581022520277 [Eh]
  @DF-RHF Final Energy:  -650.17585719574311
    Total Energy =                       -650.1758571957429922
  @DF-RHF Final Energy:  -650.17726960375705
    Total Energy =                       -650.1772696037571677
  @DF-RHF Final Energy:  -650.17728908544166
    Total Energy =                       -650.1772890854415436
  @DF-RHF Final Energy:  -650.17719788583156
    Total Energy =                       -650.1771978858316743
  @DF-RHF Final Energy:  -650.17721282835191
    Total Energy =                       -650.1772128283519123
  @DF-RHF Final Energy:  -650.17727970236012
    Total Energy =                       -650.1772797023600106
  @DF-RHF Final Energy:  -650.17732054198120
    Total Energy =                       -650.1773205419810893
  @DF-RHF Final Energy:  -650.17727109278644
    Total Energy =                       -650.1772710927864409
    Molecular point group: c1
  Charge       = 0
  Multiplicity = 1
  Basis Set: AUG-CC-PVTZ
    Blend: AUG-CC-PVTZ
  Basis Set: (AUG-CC-PVTZ AUX)
    Blend: AUG-CC-PVTZ-JKFIT

    Orbital Energies (a.u.)
    -----------------------

    Doubly Occupied:

       1A    -26.322505     2A    -20.597292     3A    -15.563609
       4A    -11.345580     5A    -11.319469     6A    -11.273360
       7A    -11.272137     8A    -11.270427     9A    -11.263046
      10A    -11.261125    11A    -11.250913    12A    -11.245921
      13A    -11.240225    14A    -11.237920    15A     -1.641558
      16A     -1.412200    17A     -1.260217    18A     -1.186687
      19A     -1.113605    20A     -1.044685    21A     -1.035334
      22A     -1.024433    23A     -0.891215    24A     -0.879639
      25A     -0.852508    26A     -0.829966    27A     -0.770908
      28A     -0.736456    29A     -0.730179    30A     -0.710523
      31A     -0.699246    32A     -0.667151    33A     -0.663281
      34A     -0.648368    35A     -0.632815    36A     -0.628763
      37A     -0.606583    38A     -0.597045    39A     -0.562310
      40A     -0.546660    41A     -0.543070    42A     -0.523762
      43A     -0.509679    44A     -0.501614    45A     -0.419421
      46A     -0.405912    47A     -0.360551    48A     -0.349279
      49A     -0.329354

  @DF-RHF Final Energy:  -650.17715117526882

   => Energetics <=

    Nuclear Repulsion Energy =            813.7031543094217341
    One-Electron Energy =               -2502.2036040626217073
    Two-Electron Energy =                1038.3232985779311548
    DFT Exchange-Correlation Energy =       0.0000000000000000
    Empirical Dispersion Energy =           0.0000000000000000
    PCM Polarization Energy =               0.0000000000000000
    EFP Energy =                            0.0000000000000000
    Total Energy =                       -650.1771511752688184
  Basis Set: (AUG-CC-PVTZ AUX)
    Blend: AUG-CC-PVTZ-RI
    Molecular point group: c1

    Geometry (in Angstrom), charge = 0, multiplicity = 1:

       Center              X                  Y                   Z               Mass
    ------------   -----------------  -----------------  -----------------  -----------------
           C         -1.415878241736     0.540617531882    -0.751298934239    12.000000000000
           C         -2.506774364123     1.102041148611    -0.109954894805    12.000000000000
           C          0.643756298030    -1.356174082615    -1.813510544592    12.000000000000
           C          2.172932644680    -0.178081858471    -0.432734768222    12.000000000000
           C         -1.371771757757     0.863716427984     1.992192828423    12.000000000000
           C          1.732513832182    -1.883736065320    -2.488298710527    12.000000000000
           C          3.197054489852    -0.753925442351    -1.167397909749    12.000000000000
           C         -0.281760485736     0.123022087958    -0.053756144497    12.000000000000
           C          0.852166655331    -0.475179700795    -0.756049449427    12.000000000000
           C         -2.484474211120     1.261041605444     1.266893592779    12.000000000000
           C         -0.303023463234     0.304486340710     1.323856257211    12.000000000000
           N          3.000276641332    -1.597142239611    -2.183797370251    14.003074004780
           O         -3.545943176187     1.867939805503     1.901158595661    15.994914619560
           F          0.749981810056    -0.100028408026     2.058959691647    18.998403224000
           H         -1.424818144749     0.438026857150    -1.826083290980     1.007825032070
           H         -3.370565380756     1.431544553953    -0.664886507989     1.007825032070
           H         -0.357841170222    -1.644050711396    -2.096113778551     1.007825032070
           H          2.402795164461     0.503333964668     0.370336572733     1.007825032070
           H         -1.333005670904     0.987530696990     3.062357707561     1.007825032070
           H          1.580504562255    -2.572196949821    -3.307949823423     1.007825032070
           H          4.226378759955    -0.524912975283    -0.929394618592     1.007825032070
           H         -4.066504716026     1.195977601658     2.350297534187     1.007825032070

  Basis Set: AUG-CC-PVTZ
    Blend: AUG-CC-PVTZ
  Basis Set: (AUG-CC-PVTZ AUX)
    Blend: AUG-CC-PVTZ-JKFIT
  Basis Set: (AUG-CC-PVTZ AUX)
    Blend: AUG-CC-PVTZ-JKFIT
	 Reference Energy          =    -650.1771511752688184 [Eh]
	 Singles Energy            =      -0.0000000000000003 [Eh]
	 Same-Spin Energy          =      -0.6765506913071941 [Eh]
	 Opposite-Spin Energy      =      -2.0170117919146615 [Eh]
	 Correlation Energy        =      -2.6935624832218559 [Eh]
	 Total Energy              =    -652.8707136584906721 [Eh]

	 ================> DF-SCS-MP2 Energies <==================
	-----------------------------------------------------------
	 SCS Same-Spin Scale       =       0.3333333333333333 [-]
	 SCS Opposite-Spin Scale   =       1.2000000000000000 [-]
	 SCS Same-Spin Energy      =      -0.2255168971023980 [Eh]
	 SCS Opposite-Spin Energy  =      -2.4204141502975935 [Eh]
	 SCS Correlation Energy    =      -2.6459310473999920 [Eh]
	 SCS Total Energy          =    -652.8230822226688588 [Eh]
	-----------------------------------------------------------

  -Total Gradient:
     Atom            X                  Y                   Z
    ------   -----------------  -----------------  -----------------
       1       -0.000114880544    -0.000004500640    -0.000044059180
       2       -0.000446145877    -0.000948714017     0.000027403210
       3       -0.000005884313    -0.000043429557    -0.000127343908
       4        0.000109881228    -0.000057941573    -0.000013794716
       5        0.000075860937    -0.000037972951    -0.000052537775
       6       -0.000149568526    -0.000023665028    -0.000012588204
       7       -0.000004093276     0.000056711465     0.000064841404
       8        0.000138843751    -0.000059272686     0.000040877558
       9       -0.000069657266     0.000076125479     0.000039465886
      10        0.000338642087     0.001457585199    -0.000313698489
      11        0.000028907048     0.000038145994     0.000086987967
      12        0.000102131419    -0.000003535023    -0.000013622051
      13        0.000851423635    -0.000232345252     0.001351369840
      14        0.000051619524    -0.000001655958     0.000020438574
      15       -0.000000688015    -0.000005561635    -0.000067087126
      16       -0.000048859091     0.000015712025    -0.000074469715
      17       -0.000098740933    -0.000026664683    -0.000017993407
      18       -0.000004939334     0.000050397666     0.000116525745
      19        0.000030820753    -0.000005031314     0.000087501712
      20       -0.000034012372    -0.000051386072    -0.000059464760
      21        0.000088521369     0.000045185665     0.000038536449
      22       -0.000839182212    -0.000238187106    -0.001077289001

*** Psi4 exiting successfully. Buy a developer a beer!
