                               Psi4 1.1 release

  ==> Input File <==

--------------------------------------------------------------------------

memory 5 Gb

molecule phepyrFOH_cation {
  symmetry C1
  1 1
  C      1.885   -1.036   -0.112
  C      0.807   -0.463   0.561
  C      4.830   -1.443   -0.930
  C      4.321   -3.578   0.063
  C      1.800   -1.079   2.676
  C      5.894   -2.040   -1.592
  C      5.398   -4.120   -0.624
  C      2.921   -1.631   0.608
  C      4.038   -2.225   -0.095
  C      0.764   -0.484   1.955
  C      2.878   -1.652   2.002
  N      6.144   -3.345   -1.422
  O      -0.289   0.076   2.612
  F      3.866   -2.220   2.709
  H      1.904   -1.012   -1.199
  H      0.002   -0.002   -0.006
  H      4.632   -0.385   -1.072
  H      3.719   -4.212   0.708
  H      1.772   -1.099   3.762
  H      6.561   -1.511   -2.259
  H      5.691   -5.159   -0.561
  H      6.930   -3.764   -1.918
  H      -0.301   -0.216   3.537
  units Angstrom
}

dih_string = "2 10 13 23 165"
set optking fixed_dihedral = $dih_string

optimize('MP2/aug-cc-PVTZ')
--------------------------------------------------------------------------

    Molecular point group: c1
  Charge       = 1
  Multiplicity = 1
  Basis Set: AUG-CC-PVTZ
    Blend: AUG-CC-PVTZ
  Basis Set: (AUG-CC-PVTZ AUX)
    Blend: AUG-CC-PVTZ-JKFIT
  @DF-RHF Final Energy:  -650.55917847677347
    Total Energy =                       -650.5591784767734680
  Basis Set: (AUG-CC-PVTZ AUX)
    Blend: AUG-CC-PVTZ-RI
    Molecular point group: c1
  Basis Set: AUG-CC-PVTZ
    Blend: AUG-CC-PVTZ
  Basis Set: (AUG-CC-PVTZ AUX)
    Blend: AUG-CC-PVTZ-JKFIT
  Basis Set: (AUG-CC-PVTZ AUX)
    Blend: AUG-CC-PVTZ-JKFIT
	 Reference Energy          =    -650.5591784767734680 [Eh]
	 Singles Energy            =      -0.0000000000000006 [Eh]
	 Same-Spin Energy          =      -0.6690971090682620 [Eh]
	 Opposite-Spin Energy      =      -2.0140106357281131 [Eh]
	 Correlation Energy        =      -2.6831077447963758 [Eh]
	 Total Energy              =    -653.2422862215698842 [Eh]
	 SCS Total Energy          =    -653.1990236093366775 [Eh]
  @DF-RHF Final Energy:  -650.56465224535179
    Total Energy =                       -650.5646522453516809
  @DF-RHF Final Energy:  -650.56630567820230
    Total Energy =                       -650.5663056782022977
  @DF-RHF Final Energy:  -650.56684342934489
    Total Energy =                       -650.5668434293447717
  @DF-RHF Final Energy:  -650.56722777688481
    Total Energy =                       -650.5672277768846925
  @DF-RHF Final Energy:  -650.56766727259856
    Total Energy =                       -650.5676672725985554
  @DF-RHF Final Energy:  -650.56812019497988
    Total Energy =                       -650.5681201949798833
  @DF-RHF Final Energy:  -650.56854692667616
    Total Energy =                       -650.5685469266761629
  @DF-RHF Final Energy:  -650.56890563105935
    Total Energy =                       -650.5689056310593514
  @DF-RHF Final Energy:  -650.56918562728924
    Total Energy =                       -650.5691856272892437
  @DF-RHF Final Energy:  -650.56938123668351
    Total Energy =                       -650.5693812366835118
  @DF-RHF Final Energy:  -650.56949063049092
    Total Energy =                       -650.5694906304909182
  @DF-RHF Final Energy:  -650.56951100278548
    Total Energy =                       -650.5695110027854753
  @DF-RHF Final Energy:  -650.56951748569884
    Total Energy =                       -650.5695174856987251
  @DF-RHF Final Energy:  -650.56954628388462
    Total Energy =                       -650.5695462838846197
  Charge       = 1
  Multiplicity = 1
  Basis Set: AUG-CC-PVTZ
    Blend: AUG-CC-PVTZ
  Basis Set: (AUG-CC-PVTZ AUX)
    Blend: AUG-CC-PVTZ-JKFIT

    Orbital Energies (a.u.)
    -----------------------

    Doubly Occupied:

       1A    -26.446968     2A    -20.716692     3A    -15.829483
       4A    -11.480253     5A    -11.478477     6A    -11.475323
       7A    -11.454041     8A    -11.448430     9A    -11.411703
      10A    -11.408473    11A    -11.387807    12A    -11.382170
      13A    -11.362655    14A    -11.353644    15A     -1.767102
      16A     -1.540334    17A     -1.507799    18A     -1.323791
      19A     -1.275916    20A     -1.237886    21A     -1.170769
      22A     -1.161498    23A     -1.065756    24A     -1.063051
      25A     -0.997968    26A     -0.973745    27A     -0.959928
      28A     -0.901730    29A     -0.872475    30A     -0.864559
      31A     -0.855414    32A     -0.834131    33A     -0.819558
      34A     -0.807284    35A     -0.790795    36A     -0.772991
      37A     -0.767837    38A     -0.753029    39A     -0.733480
      40A     -0.720748    41A     -0.707798    42A     -0.688100
      43A     -0.666494    44A     -0.649712    45A     -0.636089
      46A     -0.574536    47A     -0.538097    48A     -0.480065
      49A     -0.446938

  @DF-RHF Final Energy:  -650.56955947830852

   => Energetics <=

    Nuclear Repulsion Energy =            831.2074826669613685
    One-Electron Energy =               -2522.4270417528036887
    Two-Electron Energy =                1040.6499996075338004
    DFT Exchange-Correlation Energy =       0.0000000000000000
    Empirical Dispersion Energy =           0.0000000000000000
    PCM Polarization Energy =               0.0000000000000000
    EFP Energy =                            0.0000000000000000
    Total Energy =                       -650.5695594783085198
  Basis Set: (AUG-CC-PVTZ AUX)
    Blend: AUG-CC-PVTZ-RI
    Molecular point group: c1
  Basis Set: AUG-CC-PVTZ
    Blend: AUG-CC-PVTZ
  Basis Set: (AUG-CC-PVTZ AUX)
    Blend: AUG-CC-PVTZ-JKFIT
  Basis Set: (AUG-CC-PVTZ AUX)
    Blend: AUG-CC-PVTZ-JKFIT
	 Reference Energy          =    -650.5695594783085198 [Eh]
	 Singles Energy            =      -0.0000000000000010 [Eh]
	 Same-Spin Energy          =      -0.6687525627919139 [Eh]
	 Opposite-Spin Energy      =      -2.0122763060036659 [Eh]
	 Correlation Energy        =      -2.6810288687955808 [Eh]
	 Total Energy              =    -653.2505883471040988 [Eh]

	 ================> DF-SCS-MP2 Energies <==================
	-----------------------------------------------------------
	 SCS Same-Spin Scale       =       0.3333333333333333 [-]
	 SCS Opposite-Spin Scale   =       1.2000000000000000 [-]
	 SCS Same-Spin Energy      =      -0.2229175209306379 [Eh]
	 SCS Opposite-Spin Energy  =      -2.4147315672043992 [Eh]
	 SCS Correlation Energy    =      -2.6376490881350381 [Eh]
	 SCS Total Energy          =    -653.2072085664435690 [Eh]
	-----------------------------------------------------------

  -Total Gradient:
     Atom            X                  Y                   Z
    ------   -----------------  -----------------  -----------------
       1        0.000018872165    -0.000017662262    -0.000000672430
       2       -0.001141815358    -0.001546296083    -0.000432866286
       3       -0.000001901281    -0.000009844815     0.000026490687
       4       -0.000027114841     0.000009028433     0.000006136880
       5       -0.000009626027     0.000002573590     0.000012337382
       6        0.000018104548    -0.000034619660     0.000004364338
       7        0.000021483549     0.000010659034    -0.000030756029
       8       -0.000038879137     0.000028432488     0.000019707803
       9        0.000025770308    -0.000010848095    -0.000033984585
      10        0.001271494790     0.001811831868     0.000334551636
      11        0.000008986699     0.000005808571    -0.000022445900
      12       -0.000030880599     0.000021997906     0.000016474301
      13        0.001552567815     0.001458144334     0.001338287294
      14       -0.000014938314     0.000017186811     0.000001256134
      15       -0.000002529391     0.000002748518     0.000020338896
      16        0.000012725488    -0.000009920378     0.000017535219
      17        0.000001586019    -0.000026207117     0.000004712205
      18        0.000019391710     0.000005931201    -0.000025328618
      19       -0.000004710872     0.000007932546    -0.000026334794
      20       -0.000006831597    -0.000012418791     0.000013606191
      21       -0.000003029355     0.000018620184    -0.000006106200
      22        0.000001979988     0.000001599501     0.000002321348
      23       -0.001670706320    -0.001734677793    -0.001239625461

  **** Optimization is complete! (in 16 steps) ****
    Final optimized geometry and variables:
    Molecular point group: c1

    Geometry (in Angstrom), charge = 1, multiplicity = 1:

    C           -1.146585948017     1.057624528208    -0.696873172045
    C           -2.213035948410     1.634969532069    -0.049417609761
    C            1.446155229291     0.258947660705    -1.822171675984
    C            1.372605254993    -1.662973260096    -0.404475614103
    C           -1.554345119189     0.541279944922     1.993509555992
    C            2.488311370671    -0.306649431895    -2.511825030926
    C            2.415341475133    -2.200984777191    -1.116600210996
    C           -0.259604543404     0.193393804394    -0.038033978439
    C            0.850653650910    -0.406018089173    -0.741531257883
    C           -2.416920633305     1.387996681739     1.307612911580
    C           -0.511383067860    -0.040131857275     1.313054111661
    N            2.943378207400    -1.514916991949    -2.142843845698
    O           -3.465192017759     1.994294492027     1.887103092998
    F            0.325653880999    -0.826476730746     2.011323146707
    H           -1.024915834712     1.235359352089    -1.754415796671
    H           -2.904789277477     2.274305930925    -0.573288072789
    H            1.116771189568     1.242897091044    -2.112149218859
    H            0.954551824003    -2.238198900449     0.402372199956
    H           -1.670957226845     0.339085352081     3.046879795430
    H            2.984202612665     0.170800032008    -3.340271290783
    H            2.842948975119    -3.166452240104    -0.903870830467
    H            3.715129186644    -1.922138572250    -2.655169817706
    H           -3.663423294161     1.595218830351     2.741642014806

*** Psi4 exiting successfully. Buy a developer a beer!
