                              Psi4 1.0.0 Driver

  ==> Input File <==

--------------------------------------------------------------------------

memory 1000 mb

molecule butane {
  symmetry C1
  0 1
  H      1.604   0.760   -8.260
  H      1.745   2.388   -8.880
  H      2.043   1.024   -9.930
  C      2.142   1.395   -8.932
  H      4.169   2.051   -9.210
  H      3.731   1.788   -7.539
  C      3.631   1.416   -8.537
  H      4.266   -0.317   -9.635
  H      5.179   -0.029   -8.175
  C      4.203   -0.012   -8.612
  H      3.678   -1.968   -7.897
  H      2.304   -0.960   -8.281
  H      3.218   -0.671   -6.820
  C      3.281   -0.976   -7.844
  units Angstrom
}

dih_string = "4 7 10 14 310"
set optking fixed_dihedral = $dih_string

optimize('MP2/6-31G(d)')
--------------------------------------------------------------------------

    Molecular point group: c1
  Charge       = 0
  Multiplicity = 1
  Basis Set: 6-31G(D)
  Basis Set:
  @DF-RHF Final Energy:  -157.28733292070368
    Total Energy =                       -157.2873329207037898
  Basis Set:
    Molecular point group: c1
  Basis Set: 6-31G(D)
  Basis Set:
  Basis Set:
	 Reference Energy          =    -157.2873329207036761 [Eh]
	 Singles Energy            =      -0.0000000000000000 [Eh]
	 Same-Spin Energy          =      -0.1252493609050224 [Eh]
	 Opposite-Spin Energy      =      -0.4211034783742734 [Eh]
	 Correlation Energy        =      -0.5463528392792958 [Eh]
	 Total Energy              =    -157.8336857599829841 [Eh]
	 SCS Total Energy          =    -157.8344068817211507 [Eh]
  Basis Set: 6-31G(D)
  Basis Set:
  @DF-RHF Final Energy:  -157.29288098110675
    Total Energy =                       -157.2928809811069186
  Basis Set:
  Basis Set: 6-31G(D)
  Basis Set:
  @DF-RHF Final Energy:  -157.29429633420122
    Total Energy =                       -157.2942963342011069
  @DF-RHF Final Energy:  -157.29516176662909
    Total Energy =                       -157.2951617666292066
  @DF-RHF Final Energy:  -157.29540764935817
    Total Energy =                       -157.2954076493581681
  @DF-RHF Final Energy:  -157.29545462083371
    Total Energy =                       -157.2954546208336808
  @DF-RHF Final Energy:  -157.29548685259559
    Total Energy =                       -157.2954868525955305
  @DF-RHF Final Energy:  -157.29548420301509
    Total Energy =                       -157.2954842030151212
  @DF-RHF Final Energy:  -157.29548015973140
    Total Energy =                       -157.2954801597313690
	 Singles Energy            =      -0.0000000000000000 [Eh]
	 Same-Spin Energy          =      -0.1247076926944182 [Eh]
	 Opposite-Spin Energy      =      -0.4225825726424877 [Eh]
	 Correlation Energy        =      -0.5472902653369059 [Eh]
	 Total Energy              =    -157.8427704250682950 [Eh]
	 SCS Total Energy          =    -157.8441484778005304 [Eh]
  Charge       = 0
  Multiplicity = 1
  Basis Set: 6-31G(D)
  Basis Set:

    Orbital Energies (a.u.)
    -----------------------

    Doubly Occupied:

       1A    -11.216046     2A    -11.215456     3A    -11.209680
       4A    -11.209675     5A     -1.070316     6A     -0.974056
       7A     -0.874520     8A     -0.771688     9A     -0.626878
      10A     -0.618122    11A     -0.570460    12A     -0.535189
      13A     -0.529215    14A     -0.503417    15A     -0.460690
      16A     -0.458111    17A     -0.454560

  @DF-RHF Final Energy:  -157.29547834812482

   => Energetics <=

    Nuclear Repulsion Energy =            133.0050484953765420
    One-Electron Energy =                -474.0048942810051926
    Two-Electron Energy =                 183.7043674375036630
    DFT Exchange-Correlation Energy =       0.0000000000000000
    Empirical Dispersion Energy =           0.0000000000000000
    PCM Polarization Energy =               0.0000000000000000
    EFP Energy =                            0.0000000000000000
    Total Energy =                       -157.2954783481249592
  Basis Set:
    Molecular point group: c1
  Basis Set: 6-31G(D)
  Basis Set:
  Basis Set:
	 Reference Energy          =    -157.2954783481248171 [Eh]
	 Singles Energy            =      -0.0000000000000000 [Eh]
	 Same-Spin Energy          =      -0.1247074720360750 [Eh]
	 Opposite-Spin Energy      =      -0.4225830270832281 [Eh]
	 Correlation Energy        =      -0.5472904991193032 [Eh]
	 Total Energy              =    -157.8427688472441162 [Eh]

	 ================> DF-SCS-MP2 Energies <==================
	-----------------------------------------------------------
	 SCS Same-Spin Scale       =       0.3333333333333333 [-]
	 SCS Opposite-Spin Scale   =       1.2000000000000000 [-]
	 SCS Same-Spin Energy      =      -0.0415691573453583 [Eh]
	 SCS Opposite-Spin Energy  =      -0.5070996324998738 [Eh]
	 SCS Correlation Energy    =      -0.5486687898452320 [Eh]
	 SCS Total Energy          =    -157.8441471379700545 [Eh]
	-----------------------------------------------------------

  -Total Gradient:
     Atom            X                  Y                   Z
    ------   -----------------  -----------------  -----------------
       1        0.000010060463     0.000001581644    -0.000000512675
       2        0.000004990169    -0.000008424018     0.000001814500
       3       -0.000005510232     0.000002950664     0.000003368973
       4       -0.000597432204    -0.000298375204     0.002163590227
       5       -0.000006174456    -0.000011250581     0.000007764097
       6        0.000000256152    -0.000001331033    -0.000000907048
       7        0.000366452189     0.000238988566    -0.003836169923
       8       -0.000000505272     0.000001288991     0.000001115436
       9       -0.000014212605     0.000003004857    -0.000004777142
      10        0.001414532373     0.000488785175     0.003559322233
      11       -0.000003047012     0.000009635948    -0.000002200641
      12        0.000007810809     0.000005788168    -0.000002456653
      13       -0.000002667400    -0.000006130290    -0.000001722950
      14       -0.001174552973    -0.000426512888    -0.001888228435

  **** Optimization is complete! (in 10 steps) ****
    Final optimized geometry and variables:
    Molecular point group: c1

    Geometry (in Angstrom), charge = 0, multiplicity = 1:

    H           -1.802380060333     0.526782915671     0.252108997046
    H           -1.490133660706     2.083241035682    -0.515787801409
    H           -1.335610881601     0.592155796311    -1.451952476600
    C           -1.162665466821     1.040949267888    -0.468288028798
    H            0.905051927709     1.593496981643    -0.734777547008
    H            0.428128222810     1.359437910621     0.936637111562
    C            0.308725766561     0.952489125346    -0.075612473072
    H            0.979138340800    -0.784105845809    -1.155474155526
    H            1.899866193790    -0.446763407566     0.298597654511
    C            0.883041005486    -0.465259952996    -0.109713429754
    H            0.552964913420    -2.466382619044     0.661521968024
    H           -0.927726078371    -1.642930266740     0.172436378593
    H           -0.121144861872    -1.187720129533     1.678486108429
    C            0.047480458782    -1.496869714912     0.641705115146

*** Psi4 exiting successfully. Buy a developer a beer!
