                               Psi4 1.1 release

  ==> Input File <==

--------------------------------------------------------------------------

memory 1000 mb

molecule butane {
  symmetry C1
  0 1
  H      5.460   2.352   -9.164
  H      4.383   3.414   -8.288
  H      5.299   2.197   -7.432
  C      4.782   2.421   -8.340
  H      2.953   1.485   -7.712
  H      3.112   1.640   -9.445
  C      3.631   1.416   -8.537
  H      3.665   -0.647   -7.940
  H      4.104   -0.384   -9.610
  C      4.203   -0.012   -8.612
  H      6.088   -0.983   -8.270
  H      5.791   0.381   -7.220
  H      6.230   0.644   -8.890
  C      5.691   0.009   -8.218
  units Angstrom
}

dih_string = "14 10 7 4 10"
set optking fixed_dihedral = $dih_string

optimize('MP2/aug-cc-pvtz')
--------------------------------------------------------------------------

    Molecular point group: c1
  Charge       = 0
  Multiplicity = 1
  Basis Set: AUG-CC-PVTZ
    Blend: AUG-CC-PVTZ
  Basis Set: (AUG-CC-PVTZ AUX)
    Blend: AUG-CC-PVTZ-JKFIT
  @DF-RHF Final Energy:  -157.33186361141026
    Total Energy =                       -157.3318636114102560
  Basis Set: (AUG-CC-PVTZ AUX)
    Blend: AUG-CC-PVTZ-RI
    Molecular point group: c1
  Basis Set: AUG-CC-PVTZ
    Blend: AUG-CC-PVTZ
  Basis Set: (AUG-CC-PVTZ AUX)
    Blend: AUG-CC-PVTZ-JKFIT
  Basis Set: (AUG-CC-PVTZ AUX)
    Blend: AUG-CC-PVTZ-JKFIT
	 Reference Energy          =    -157.3318636114102560 [Eh]
	 Singles Energy            =      -0.0000000000000000 [Eh]
	 Same-Spin Energy          =      -0.1674948658714719 [Eh]
	 Opposite-Spin Energy      =      -0.6422851479859681 [Eh]
	 Correlation Energy        =      -0.8097800138574400 [Eh]
	 Total Energy              =    -158.1416436252677045 [Eh]
	 SCS Total Energy          =    -158.1584374109505688 [Eh]
  @DF-RHF Final Energy:  -157.34180344242887
    Total Energy =                       -157.3418034424288692
  @DF-RHF Final Energy:  -157.34491320343318
    Total Energy =                       -157.3449132034331797
  @DF-RHF Final Energy:  -157.34620800705602
    Total Energy =                       -157.3462080070560205
  @DF-RHF Final Energy:  -157.34671866618862
    Total Energy =                       -157.3467186661886217
  @DF-RHF Final Energy:  -157.34676955752280
    Total Energy =                       -157.3467695575228049
  Charge       = 0
  Multiplicity = 1
  Basis Set: AUG-CC-PVTZ
    Blend: AUG-CC-PVTZ
  Basis Set: (AUG-CC-PVTZ AUX)
    Blend: AUG-CC-PVTZ-JKFIT

    Orbital Energies (a.u.)
    -----------------------

    Doubly Occupied:

       1A    -11.211885     2A    -11.211319     3A    -11.205205
       4A    -11.205199     5A     -1.069068     6A     -0.976059
       7A     -0.878803     8A     -0.768451     9A     -0.636191
      10A     -0.615872    11A     -0.565630    12A     -0.540151
      13A     -0.524330    14A     -0.512996    15A     -0.463325
      16A     -0.457881    17A     -0.443875

  @DF-RHF Final Energy:  -157.34679553060872

   => Energetics <=

    Nuclear Repulsion Energy =            133.5290372883684427
    One-Electron Energy =                -475.1791858951410177
    Two-Electron Energy =                 184.3033530761638588
    DFT Exchange-Correlation Energy =       0.0000000000000000
    Empirical Dispersion Energy =           0.0000000000000000
    PCM Polarization Energy =               0.0000000000000000
    EFP Energy =                            0.0000000000000000
    Total Energy =                       -157.3467955306087163
  Basis Set: (AUG-CC-PVTZ AUX)
    Blend: AUG-CC-PVTZ-RI
    Molecular point group: c1
  Basis Set: AUG-CC-PVTZ
    Blend: AUG-CC-PVTZ
  Basis Set: (AUG-CC-PVTZ AUX)
    Blend: AUG-CC-PVTZ-JKFIT
  Basis Set: (AUG-CC-PVTZ AUX)
    Blend: AUG-CC-PVTZ-JKFIT
	 Reference Energy          =    -157.3467955306087163 [Eh]
	 Singles Energy            =      -0.0000000000000000 [Eh]
	 Same-Spin Energy          =      -0.1657528556593130 [Eh]
	 Opposite-Spin Energy      =      -0.6406786707547737 [Eh]
	 Correlation Energy        =      -0.8064315264140867 [Eh]
	 Total Energy              =    -158.1532270570228036 [Eh]

	 ================> DF-SCS-MP2 Energies <==================
	-----------------------------------------------------------
	 SCS Same-Spin Scale       =       0.3333333333333333 [-]
	 SCS Opposite-Spin Scale   =       1.2000000000000000 [-]
	 SCS Same-Spin Energy      =      -0.0552509518864377 [Eh]
	 SCS Opposite-Spin Energy  =      -0.7688144049057284 [Eh]
	 SCS Correlation Energy    =      -0.8240653567921661 [Eh]
	 SCS Total Energy          =    -158.1708608874008917 [Eh]
	-----------------------------------------------------------

  -Total Gradient:
     Atom            X                  Y                   Z
    ------   -----------------  -----------------  -----------------
       1        0.000013046859    -0.000004989917    -0.000014330556
       2       -0.000002672739     0.000026555380     0.000003569976
       3       -0.000002869008    -0.000010747954    -0.000000430295
       4       -0.000215111325    -0.000214830185     0.002771688440
       5       -0.000036234212    -0.000007980611     0.000024837937
       6       -0.000015811473     0.000010388202    -0.000018253932
       7        0.000655037089     0.000389133421    -0.005116012272
       8       -0.000011890689    -0.000016565104     0.000014113922
       9       -0.000018500304    -0.000014413645    -0.000035652293
      10       -0.001017911158    -0.000534897438     0.005044285363
      11        0.000017281080    -0.000021597049    -0.000001046670
      12        0.000000946453     0.000008545927     0.000014996194
      13       -0.000009034411     0.000008226820    -0.000000887695
      14        0.000643723840     0.000383172147    -0.002686878120

  **** Optimization is complete! (in 7 steps) ****
    Final optimized geometry and variables:
    Molecular point group: c1

    Geometry (in Angstrom), charge = 0, multiplicity = 1:

    H            0.783168280619     1.609714191320    -0.794228903758
    H           -0.414372295407     2.543233847666     0.085448166794
    H            0.671761949692     1.472086074857     0.954338335078
    C            0.089745989684     1.580198899966     0.043419868263
    H           -1.621663525739     0.534590822110     0.734290427834
    H           -1.526112117194     0.641196574734    -0.997568123277
    C           -0.929710966183     0.462403439759    -0.104651161270
    H           -0.939506336923    -1.612325586389     0.502971650878
    H           -0.492778618734    -1.367432309639    -1.158451962074
    C           -0.356186209643    -0.968891357984    -0.153297195253
    H            1.425812535657    -2.144840455560     0.117243039970
    H            1.321383911395    -0.780952654332     1.216464965465
    H            1.742566040161    -0.520967438520    -0.469897710354
    C            1.116343216382    -1.105146981720     0.198520037007

*** Psi4 exiting successfully. Buy a developer a beer!
