                              Psi4 1.0.0 Driver

  ==> Input File <==

--------------------------------------------------------------------------

memory 1000 mb

molecule butane {
  symmetry C1
  0 1
  H      1.604   0.760   -8.260
  H      1.745   2.388   -8.880
  H      2.043   1.024   -9.930
  C      2.142   1.395   -8.932
  H      4.169   2.051   -9.210
  H      3.731   1.788   -7.539
  C      3.631   1.416   -8.537
  H      5.179   -0.028   -8.174
  H      3.562   -0.682   -8.078
  C      4.203   -0.012   -8.612
  H      4.691   -1.445   -10.136
  H      4.934   0.216   -10.619
  H      3.317   -0.437   -10.523
  C      4.293   -0.453   -10.084
  units Angstrom
}

dih_string = "4 7 10 14 70"
set optking fixed_dihedral = $dih_string

optimize('B3LYP/cc-PVDZ')
--------------------------------------------------------------------------

    Molecular point group: c1
  Charge       = 0
  Multiplicity = 1
  Basis Set: CC-PVDZ
   => B3LYP Composite Functional <=
  Basis Set:
  @DF-RKS Final Energy:  -158.44712941439991
    Total Energy =                       -158.4471294143999103
    Molecular point group: c1
  Basis Set: CC-PVDZ
  Basis Set:
   => B3LYP Composite Functional <=
  Basis Set: CC-PVDZ
   => B3LYP Composite Functional <=
  Basis Set:
  @DF-RKS Final Energy:  -158.45325946395275
    Total Energy =                       -158.4532594639527474
  Basis Set: CC-PVDZ
  Basis Set:
   => B3LYP Composite Functional <=
  Basis Set: CC-PVDZ
   => B3LYP Composite Functional <=
  Basis Set:
  @DF-RKS Final Energy:  -158.45623179347496
    Total Energy =                       -158.4562317934749558
  Basis Set: CC-PVDZ
  Basis Set:
  @DF-RKS Final Energy:  -158.45718165275849
    Total Energy =                       -158.4571816527584929
   => B3LYP Composite Functional <=
  Basis Set:
  @DF-RKS Final Energy:  -158.45740412090947
    Total Energy =                       -158.4574041209094730
  Basis Set: CC-PVDZ
  Basis Set:
   => B3LYP Composite Functional <=
  Basis Set: CC-PVDZ
   => B3LYP Composite Functional <=
  Basis Set:
  @DF-RKS Final Energy:  -158.45741409281791
    Total Energy =                       -158.4574140928179133
  Basis Set: CC-PVDZ
  Basis Set:
   => B3LYP Composite Functional <=
  Charge       = 0
  Multiplicity = 1
  Basis Set: CC-PVDZ
   => B3LYP Composite Functional <=
  Basis Set:

    Orbital Energies (a.u.)
    -----------------------

    Doubly Occupied:

       1A    -10.180481     2A    -10.180308     3A    -10.175484
       4A    -10.175478     5A     -0.790168     6A     -0.716981
       7A     -0.636244     8A     -0.563361     9A     -0.450690
      10A     -0.450218    11A     -0.413606    12A     -0.379851
      13A     -0.379219    14A     -0.356956    15A     -0.323182
      16A     -0.320407    17A     -0.318711

  @DF-RKS Final Energy:  -158.45741492987321

   => Energetics <=

    Nuclear Repulsion Energy =            131.5159513651316274
    One-Electron Energy =                -471.5259005826103476
    Two-Electron Energy =                 202.1361908307579540
    DFT Exchange-Correlation Energy =     -20.5836565431524541
    Empirical Dispersion Energy =           0.0000000000000000
    PCM Polarization Energy =               0.0000000000000000
    EFP Energy =                            0.0000000000000000
    Total Energy =                       -158.4574149298732095
    Molecular point group: c1
  Basis Set: CC-PVDZ
  Basis Set:
   => B3LYP Composite Functional <=

  -Total Gradient:
     Atom            X                  Y                   Z
    ------   -----------------  -----------------  -----------------
       1        0.000001736930     0.000005798908    -0.000005239528
       2       -0.000002930162    -0.000002588336    -0.000000197348
       3        0.000002535218     0.000002853968     0.000005990354
       4       -0.000123498734    -0.000112432807     0.000563920336
       5       -0.000012243422    -0.000001027596    -0.000000348264
       6        0.000010171674    -0.000000270183    -0.000007981655
       7        0.000393804494     0.000253188143    -0.000798161902
       8       -0.000010497970     0.000000087101     0.000007279815
       9        0.000003030416    -0.000002045325    -0.000011470240
      10       -0.000798607877    -0.000388478638     0.000261222381
      11        0.000000026209     0.000001722837    -0.000002829729
      12       -0.000004304509    -0.000006380939     0.000002677205
      13        0.000005808607    -0.000000023400     0.000005013408
      14        0.000532426170     0.000248747194    -0.000023249452

  **** Optimization is complete! (in 7 steps) ****
    Final optimized geometry and variables:
    Molecular point group: c1

    Geometry (in Angstrom), charge = 0, multiplicity = 1:

    H           -2.041826481066     0.220604686317     0.808303769365
    H           -1.841666584804     1.908935612577     0.282148038558
    H           -1.636489754280     0.586590165858    -0.884530185315
    C           -1.447400733524     0.886937731634     0.159365515756
    H            0.610101015319     1.514736428005    -0.128228012572
    H            0.175245508747     1.185816723706     1.549984426949
    C            0.040883039143     0.819107853957     0.516603917418
    H            1.654302067246    -0.572329819447     0.880362082925
    H            0.048687211772    -1.293826867242     1.003358011497
    C            0.655519905851    -0.585586499427     0.408490949597
    H            1.266948775349    -2.101651887717    -1.045596007596
    H            1.420275457051    -0.429020466256    -1.633959401830
    H           -0.181196161688    -1.196109750602    -1.530063118190
    C            0.795142116152    -1.105656221398    -1.025820050004

*** Psi4 exiting successfully. Buy a developer a beer!
