                               Psi4 1.1 release

  ==> Input File <==

--------------------------------------------------------------------------

memory 5000 mb

molecule butane {
  symmetry C1
  0 1
  H      1.595   2.056   -8.294
  H      2.038   1.713   -9.949
  H      1.760   0.402   -8.829
  C      2.142   1.395   -8.932
  H      4.169   2.051   -9.210
  H      3.731   1.788   -7.539
  C      3.631   1.416   -8.537
  H      3.665   -0.647   -7.940
  H      4.104   -0.384   -9.610
  C      4.203   -0.012   -8.612
  H      6.088   -0.983   -8.270
  H      5.791   0.381   -7.220
  H      6.230   0.644   -8.890
  C      5.691   0.009   -8.218
  units Angstrom
}

dih_string = "10 7 4 3 20"
set optking fixed_dihedral = $dih_string

optimize('MP2/aug-cc-pvtz')
--------------------------------------------------------------------------

    Molecular point group: c1
  Charge       = 0
  Multiplicity = 1
  Basis Set: AUG-CC-PVTZ
    Blend: AUG-CC-PVTZ
  Basis Set: (AUG-CC-PVTZ AUX)
    Blend: AUG-CC-PVTZ-JKFIT
  @DF-RHF Final Energy:  -157.34859226443726
    Total Energy =                       -157.3485922644372579
  Basis Set: (AUG-CC-PVTZ AUX)
    Blend: AUG-CC-PVTZ-RI
    Molecular point group: c1
  Basis Set: AUG-CC-PVTZ
    Blend: AUG-CC-PVTZ
  Basis Set: (AUG-CC-PVTZ AUX)
    Blend: AUG-CC-PVTZ-JKFIT
  Basis Set: (AUG-CC-PVTZ AUX)
    Blend: AUG-CC-PVTZ-JKFIT
	 Reference Energy          =    -157.3485922644372579 [Eh]
	 Singles Energy            =      -0.0000000000000001 [Eh]
	 Same-Spin Energy          =      -0.1654614447177220 [Eh]
	 Opposite-Spin Energy      =      -0.6393173409410229 [Eh]
	 Correlation Energy        =      -0.8047787856587448 [Eh]
	 Total Energy              =    -158.1533710500960126 [Eh]
	 SCS Total Energy          =    -158.1709268884723940 [Eh]
  @DF-RHF Final Energy:  -157.35144114707558
    Total Energy =                       -157.3514411470755761
  @DF-RHF Final Energy:  -157.35233806969623
    Total Energy =                       -157.3523380696962306
  @DF-RHF Final Energy:  -157.35266253195093
    Total Energy =                       -157.3526625319509265
  @DF-RHF Final Energy:  -157.35268892243656
    Total Energy =                       -157.3526889224365561
  @DF-RHF Final Energy:  -157.35269517837142
    Total Energy =                       -157.3526951783714196
  @DF-RHF Final Energy:  -157.35269234455828
    Total Energy =                       -157.3526923445582781
  Charge       = 0
  Multiplicity = 1
  Basis Set: AUG-CC-PVTZ
    Blend: AUG-CC-PVTZ
  Basis Set: (AUG-CC-PVTZ AUX)
    Blend: AUG-CC-PVTZ-JKFIT

    Orbital Energies (a.u.)
    -----------------------

    Doubly Occupied:

       1A    -11.211664     2A    -11.210859     3A    -11.205945
       4A    -11.205631     5A     -1.073217     6A     -0.980803
       7A     -0.861711     8A     -0.788792     9A     -0.639202
      10A     -0.584821    11A     -0.577985    12A     -0.568473
      13A     -0.512744    14A     -0.495490    15A     -0.470545
      16A     -0.458063    17A     -0.456076

  @DF-RHF Final Energy:  -157.35269359329732

   => Energetics <=

    Nuclear Repulsion Energy =            131.3670340699067651
    One-Electron Energy =                -470.8354152231709122
    Two-Electron Energy =                 182.1156875599668297
    DFT Exchange-Correlation Energy =       0.0000000000000000
    Empirical Dispersion Energy =           0.0000000000000000
    PCM Polarization Energy =               0.0000000000000000
    EFP Energy =                            0.0000000000000000
    Total Energy =                       -157.3526935932973174
  Basis Set: (AUG-CC-PVTZ AUX)
    Blend: AUG-CC-PVTZ-RI
    Molecular point group: c1
  Basis Set: AUG-CC-PVTZ
    Blend: AUG-CC-PVTZ
  Basis Set: (AUG-CC-PVTZ AUX)
    Blend: AUG-CC-PVTZ-JKFIT
  Basis Set: (AUG-CC-PVTZ AUX)
    Blend: AUG-CC-PVTZ-JKFIT
	 Reference Energy          =    -157.3526935932973174 [Eh]
	 Singles Energy            =      -0.0000000000000000 [Eh]
	 Same-Spin Energy          =      -0.1654623084858864 [Eh]
	 Opposite-Spin Energy      =      -0.6397260391792491 [Eh]
	 Correlation Energy        =      -0.8051883476651355 [Eh]
	 Total Energy              =    -158.1578819409624543 [Eh]

	 ================> DF-SCS-MP2 Energies <==================
	-----------------------------------------------------------
	 SCS Same-Spin Scale       =       0.3333333333333333 [-]
	 SCS Opposite-Spin Scale   =       1.2000000000000000 [-]
	 SCS Same-Spin Energy      =      -0.0551541028286288 [Eh]
	 SCS Opposite-Spin Energy  =      -0.7676712470150989 [Eh]
	 SCS Correlation Energy    =      -0.8228253498437277 [Eh]
	 SCS Total Energy          =    -158.1755189431410429 [Eh]
	-----------------------------------------------------------

  -Total Gradient:
     Atom            X                  Y                   Z
    ------   -----------------  -----------------  -----------------
       1       -0.000006629665    -0.000005965615     0.000004827953
       2        0.000019334907    -0.000002188522     0.000017765030
       3        0.000823767891    -0.000614858644    -0.003007552598
       4       -0.001274148320     0.000624640611     0.004629070148
       5        0.000005434882    -0.000008911306     0.000002686917
       6       -0.000012376489     0.000004771149    -0.000016655596
       7        0.001054121267     0.000378929698    -0.003826685644
       8        0.000008758235     0.000001287339    -0.000009002220
       9       -0.000004308318     0.000006708061    -0.000000712817
      10       -0.000606654482    -0.000373736861     0.002171404229
      11        0.000000133390    -0.000000049207     0.000008149194
      12        0.000006931339    -0.000000074400    -0.000005330822
      13       -0.000019707551    -0.000005110950    -0.000001180038
      14        0.000005342912    -0.000005441350     0.000033216266

  **** Optimization is complete! (in 8 steps) ****
    Final optimized geometry and variables:
    Molecular point group: c1

    Geometry (in Angstrom), charge = 0, multiplicity = 1:

    H           -2.374280553099     1.380049905043     0.238827473242
    H           -1.900650765306     0.987131263712    -1.404247969597
    H           -2.209056250686    -0.302004355039    -0.274781600244
    C           -1.783014097474     0.695778217062    -0.362748077122
    H            0.259523226826     1.370772214977    -0.592645664472
    H           -0.202835630954     1.061775518518     1.059876302133
    C           -0.309476227580     0.689785439410     0.040113473189
    H           -0.238447393274    -1.351782108996     0.652976025263
    H            0.180943068463    -1.101610688821    -1.025694184651
    C            0.310739634904    -0.693707213505    -0.021540566077
    H            2.206358359739    -1.691844486225     0.312202806276
    H            1.925843058648    -0.298985338451     1.351288473388
    H            2.348835762854    -0.062590839275    -0.338564323269
    C            1.782067073034    -0.691093106667     0.345918930878

*** Psi4 exiting successfully. Buy a developer a beer!
