                               Psi4 1.1 release

  ==> Input File <==

--------------------------------------------------------------------------

memory 5 Gb

molecule phepyrF {
  symmetry C1
  0 1
  C      1.885   -1.036   -0.112
  C      0.807   -0.463   0.561
  C      2.921   -1.631   0.608
  C      0.764   -0.484   1.955
  C      5.255   -1.793   2.617
  C      3.694   -3.342   3.591
  C      6.250   -2.418   3.351
  C      4.759   -3.898   4.281
  C      2.878   -1.652   2.002
  C      3.955   -2.270   2.745
  C      1.800   -1.079   2.676
  N      6.035   -3.462   4.183
  F      1.744   -1.089   4.016
  H      1.918   -1.020   -1.198
  H      0.000   -0.000   -0.000
  H      3.755   -2.073   0.068
  H      -0.076   -0.038   2.480
  H      5.498   -0.958   1.968
  H      2.693   -3.741   3.716
  H      7.281   -2.083   3.288
  H      4.608   -4.736   4.953
  units Angstrom
}

dih_string = "3 9 10 5 60"
set optking fixed_dihedral = $dih_string

optimize('MP2/aug-cc-PVTZ')
--------------------------------------------------------------------------

    Molecular point group: c1
  Charge       = 0
  Multiplicity = 1
  Basis Set: AUG-CC-PVTZ
    Blend: AUG-CC-PVTZ
  Basis Set: (AUG-CC-PVTZ AUX)
    Blend: AUG-CC-PVTZ-JKFIT
  @DF-RHF Final Energy:  -575.28370878674093
    Total Energy =                       -575.2837087867409309
  Basis Set: (AUG-CC-PVTZ AUX)
    Blend: AUG-CC-PVTZ-RI
    Molecular point group: c1
  Basis Set: AUG-CC-PVTZ
    Blend: AUG-CC-PVTZ
  Basis Set: (AUG-CC-PVTZ AUX)
    Blend: AUG-CC-PVTZ-JKFIT
  Basis Set: (AUG-CC-PVTZ AUX)
    Blend: AUG-CC-PVTZ-JKFIT
	 Reference Energy          =    -575.2837087867409309 [Eh]
	 Singles Energy            =      -0.0000000000000002 [Eh]
	 Same-Spin Energy          =      -0.6078579964762767 [Eh]
	 Opposite-Spin Energy      =      -1.8320528495882449 [Eh]
	 Correlation Energy        =      -2.4399108460645218 [Eh]
	 Total Energy              =    -577.7236196328054803 [Eh]
	 SCS Total Energy          =    -577.6847915384055341 [Eh]
  @DF-RHF Final Energy:  -575.28933110569437
    Total Energy =                       -575.2893311056943730
  @DF-RHF Final Energy:  -575.29035654210406
    Total Energy =                       -575.2903565421040639
  @DF-RHF Final Energy:  -575.29024965334929
    Total Energy =                       -575.2902496533492922
  @DF-RHF Final Energy:  -575.29017006941285
    Total Energy =                       -575.2901700694128522
  Charge       = 0
  Multiplicity = 1
  Basis Set: AUG-CC-PVTZ
    Blend: AUG-CC-PVTZ
  Basis Set: (AUG-CC-PVTZ AUX)
    Blend: AUG-CC-PVTZ-JKFIT

    Orbital Energies (a.u.)
    -----------------------

    Doubly Occupied:

       1A    -26.316731     2A    -15.564380     3A    -11.337299
       4A    -11.273588     5A    -11.272718     6A    -11.268589
       7A    -11.261279     8A    -11.256491     9A    -11.256308
      10A    -11.250962    11A    -11.247257    12A    -11.240373
      13A    -11.239046    14A     -1.635723    15A     -1.260724
      16A     -1.186194    17A     -1.115401    18A     -1.038950
      19A     -1.035148    20A     -1.028964    21A     -0.892292
      22A     -0.869820    23A     -0.851104    24A     -0.826154
      25A     -0.756019    26A     -0.723306    27A     -0.713060
      28A     -0.703666    29A     -0.671801    30A     -0.666803
      31A     -0.652658    32A     -0.626312    33A     -0.612628
      34A     -0.598714    35A     -0.592252    36A     -0.550270
      37A     -0.537977    38A     -0.527591    39A     -0.518942
      40A     -0.510668    41A     -0.419364    42A     -0.397302
      43A     -0.355387    44A     -0.348782    45A     -0.340984

  @DF-RHF Final Energy:  -575.29019863859958

   => Energetics <=

    Nuclear Repulsion Energy =            715.7522613020796598
    One-Electron Energy =               -2203.3849607668535100
    Two-Electron Energy =                 912.3425008261742732
    DFT Exchange-Correlation Energy =       0.0000000000000000
    Empirical Dispersion Energy =           0.0000000000000000
    PCM Polarization Energy =               0.0000000000000000
    EFP Energy =                            0.0000000000000000
    Total Energy =                       -575.2901986385995770
  Basis Set: (AUG-CC-PVTZ AUX)
    Blend: AUG-CC-PVTZ-RI
    Molecular point group: c1
  Basis Set: AUG-CC-PVTZ
    Blend: AUG-CC-PVTZ
  Basis Set: (AUG-CC-PVTZ AUX)
    Blend: AUG-CC-PVTZ-JKFIT
  Basis Set: (AUG-CC-PVTZ AUX)
    Blend: AUG-CC-PVTZ-JKFIT
	 Reference Energy          =    -575.2901986385995770 [Eh]
	 Singles Energy            =      -0.0000000000000001 [Eh]
	 Same-Spin Energy          =      -0.6069998878240108 [Eh]
	 Opposite-Spin Energy      =      -1.8296044416755823 [Eh]
	 Correlation Energy        =      -2.4366043294995929 [Eh]
	 Total Energy              =    -577.7268029680991503 [Eh]

	 ================> DF-SCS-MP2 Energies <==================
	-----------------------------------------------------------
	 SCS Same-Spin Scale       =       0.3333333333333333 [-]
	 SCS Opposite-Spin Scale   =       1.2000000000000000 [-]
	 SCS Same-Spin Energy      =      -0.2023332959413369 [Eh]
	 SCS Opposite-Spin Energy  =      -2.1955253300106987 [Eh]
	 SCS Correlation Energy    =      -2.3978586259520358 [Eh]
	 SCS Total Energy          =    -577.6880572645516168 [Eh]
	-----------------------------------------------------------

  -Total Gradient:
     Atom            X                  Y                   Z
    ------   -----------------  -----------------  -----------------
       1       -0.000005077322     0.000050327422    -0.000037693476
       2        0.000009522403    -0.000044792370    -0.000011646024
       3       -0.001203290102    -0.002141491037    -0.000024522955
       4        0.000010539028    -0.000035668825     0.000037846951
       5       -0.000370274062     0.001524982529     0.001827990858
       6        0.000044898312    -0.000014354208     0.000024112087
       7        0.000012568485     0.000086912036     0.000144659925
       8        0.000012767655    -0.000072609783    -0.000028355467
       9        0.001575695053     0.003926538335     0.000838737919
      10        0.000009833639    -0.003379995948    -0.002737397972
      11       -0.000026347384     0.000139608260     0.000179091036
      12       -0.000038841071     0.000010328203    -0.000078932980
      13       -0.000015719258    -0.000031319751    -0.000150388398
      14       -0.000001499228    -0.000004854399     0.000021146415
      15        0.000005653794    -0.000004441113     0.000021484892
      16       -0.000016029538    -0.000002497529     0.000021999419
      17        0.000001901270     0.000004281974    -0.000026674308
      18       -0.000003934785    -0.000021348768     0.000003600121
      19        0.000008976262     0.000012958637    -0.000001740037
      20        0.000001292179    -0.000025185274    -0.000045014209
      21       -0.000012635340     0.000022621617     0.000021696197

  **** Optimization is complete! (in 6 steps) ****
    Final optimized geometry and variables:
    Molecular point group: c1

    Geometry (in Angstrom), charge = 0, multiplicity = 1:

    C           -1.381435545965     0.868549280353    -2.665275135666
    C           -2.465416976320     1.417393627998    -1.994101521790
    C           -0.347946167833     0.287377447563    -1.947039336453
    C           -2.515399872291     1.382404526004    -0.608156941401
    C            2.021985588824     0.052811720745     0.086292195502
    C            0.466439553166    -1.447195107846     1.072427629931
    C            3.018367654215    -0.579099920923     0.814495567080
    C            1.527751774847    -2.015450459493     1.758640399327
    C           -0.368883969120     0.247683308496    -0.554001489430
    C            0.710607356750    -0.392594291658     0.200791972487
    C           -1.474496615215     0.795931229870     0.081630823224
    N            2.791944446836    -1.601299707625     1.641884418132
    F           -1.528964522316     0.769999356656     1.425846770031
    H           -1.345565219917     0.886340265177    -3.742928783255
    H           -3.274995000002     1.870779749340    -2.544331028402
    H            0.493529643145    -0.153546548245    -2.460455628070
    H           -3.342197227150     1.801437477897    -0.058153554325
    H            2.260726331891     0.883646596189    -0.560659780164
    H           -0.535910525444    -1.822894143676     1.208406837001
    H            4.043763764353    -0.246603651313     0.734146787447
    H            1.356547265437    -2.841491296668     2.434328454369

*** Psi4 exiting successfully. Buy a developer a beer!
