                              Psi4 1.0.0 Driver

  ==> Input File <==

--------------------------------------------------------------------------

memory 1000 mb

molecule butane {
  symmetry C1
  0 1
  H      1.604   0.760   -8.260
  H      1.745   2.388   -8.880
  H      2.043   1.024   -9.930
  C      2.142   1.395   -8.932
  H      4.169   2.051   -9.210
  H      3.731   1.788   -7.539
  C      3.631   1.416   -8.537
  H      4.742   -0.132   -9.528
  H      4.863   -0.176   -7.786
  C      4.203   -0.012   -8.612
  H      3.448   -2.023   -8.609
  H      2.390   -0.868   -9.382
  H      2.511   -0.911   -7.640
  C      3.050   -1.031   -8.557
  units Angstrom
}

dih_string = "4 7 10 14 340"
set optking fixed_dihedral = $dih_string

optimize('B3LYP/cc-PVDZ')
--------------------------------------------------------------------------

    Molecular point group: c1
  Charge       = 0
  Multiplicity = 1
  Basis Set: CC-PVDZ
   => B3LYP Composite Functional <=
  Basis Set:
  @DF-RKS Final Energy:  -158.43461714532498
    Total Energy =                       -158.4346171453249781
    Molecular point group: c1
  Basis Set: CC-PVDZ
  Basis Set:
   => B3LYP Composite Functional <=
  Basis Set: CC-PVDZ
   => B3LYP Composite Functional <=
  Basis Set:
  @DF-RKS Final Energy:  -158.44407375211605
    Total Energy =                       -158.4440737521160543
  Basis Set: CC-PVDZ
  Basis Set:
   => B3LYP Composite Functional <=
  Basis Set: CC-PVDZ
   => B3LYP Composite Functional <=
  Basis Set:
  @DF-RKS Final Energy:  -158.44885847484721
    Total Energy =                       -158.4488584748472135
  Basis Set: CC-PVDZ
  Basis Set:
  @DF-RKS Final Energy:  -158.45084967008307
    Total Energy =                       -158.4508496700830733
  @DF-RKS Final Energy:  -158.45157726070892
    Total Energy =                       -158.4515772607089161
   => B3LYP Composite Functional <=
  Basis Set:
  @DF-RKS Final Energy:  -158.45177779701078
    Total Energy =                       -158.4517777970107772
  Basis Set: CC-PVDZ
  Basis Set:
   => B3LYP Composite Functional <=
  Basis Set: CC-PVDZ
   => B3LYP Composite Functional <=
  Basis Set:
  @DF-RKS Final Energy:  -158.45179551072658
    Total Energy =                       -158.4517955107265834
  Basis Set: CC-PVDZ
  Basis Set:
   => B3LYP Composite Functional <=
  Charge       = 0
  Multiplicity = 1
  Basis Set: CC-PVDZ
   => B3LYP Composite Functional <=
  Basis Set:

    Orbital Energies (a.u.)
    -----------------------

    Doubly Occupied:

       1A    -10.180419     2A    -10.180279     3A    -10.175302
       4A    -10.175279     5A     -0.787152     6A     -0.715801
       7A     -0.640629     8A     -0.556751     9A     -0.458768
      10A     -0.445653    11A     -0.405866    12A     -0.387761
      13A     -0.373455    14A     -0.358757    15A     -0.327203
      16A     -0.321663    17A     -0.306554

  @DF-RKS Final Energy:  -158.45179728094070

   => Energetics <=

    Nuclear Repulsion Energy =            131.8391721487924997
    One-Electron Energy =                -472.1895726368618966
    Two-Electron Energy =                 202.4817119797914700
    DFT Exchange-Correlation Energy =     -20.5831087726627544
    Empirical Dispersion Energy =           0.0000000000000000
    PCM Polarization Energy =               0.0000000000000000
    EFP Energy =                            0.0000000000000000
    Total Energy =                       -158.4517972809406956
    Molecular point group: c1
  Basis Set: CC-PVDZ
  Basis Set:
   => B3LYP Composite Functional <=

  -Total Gradient:
     Atom            X                  Y                   Z
    ------   -----------------  -----------------  -----------------
       1       -0.000004623963    -0.000001127340    -0.000002358194
       2       -0.000012017380     0.000015264686     0.000007274721
       3        0.000011249304     0.000006889766     0.000003587740
       4       -0.000735450304    -0.000411467700     0.003720346407
       5        0.000006453668     0.000015410913    -0.000008637124
       6        0.000018455527    -0.000006049665    -0.000005946554
       7        0.000819720929     0.000566949831    -0.007032932072
       8        0.000008703150     0.000016816695     0.000007254953
       9        0.000014850535    -0.000007167761     0.000009763314
      10        0.000406162103    -0.000072727841     0.007091289456
      11        0.000002577471    -0.000019456308    -0.000007739878
      12       -0.000004308835    -0.000002513494     0.000001879878
      13        0.000013471134     0.000003142936    -0.000002435079
      14       -0.000509097956    -0.000089414860    -0.003779633373

  **** Optimization is complete! (in 8 steps) ****
    Final optimized geometry and variables:
    Molecular point group: c1

    Geometry (in Angstrom), charge = 0, multiplicity = 1:

    H           -1.756065333272     0.567532653334     0.494518683536
    H           -1.448107385359     2.177880966019    -0.188660734062
    H           -1.412882098702     0.747915048560    -1.240733962554
    C           -1.144540436428     1.119224811385    -0.236593255921
    H            0.924118909322     1.616823778112    -0.647983025933
    H            0.539233366703     1.408212771736     1.053006038178
    C            0.354866080189     0.980111589503     0.050500997458
    H            1.446590877747    -0.608810173150    -0.958842651878
    H            1.728555314044    -0.548980803575     0.773765650371
    C            0.936568770157    -0.460237870424     0.010735850485
    H            0.451219009178    -2.579183714704     0.141384969086
    H           -0.827733566229    -1.607649019369    -0.617031533964
    H           -0.598000571752    -1.557409786612     1.145386151641
    C           -0.066850306150    -1.606875989111     0.179151743980

*** Psi4 exiting successfully. Buy a developer a beer!
