                               Psi4 1.1 release

  ==> Input File <==

--------------------------------------------------------------------------

memory 1000 mb

molecule butane {
  symmetry C1
  0 1
  H      3.629   1.697   -10.667
  H      3.627   3.188   -9.754
  H      5.090   2.242   -9.880
  C      4.024   2.195   -9.807
  H      4.028   1.914   -7.677
  H      2.565   1.369   -8.462
  C      3.631   1.416   -8.537
  H      3.665   -0.647   -7.940
  H      4.104   -0.384   -9.610
  C      4.203   -0.012   -8.612
  H      6.088   -0.983   -8.270
  H      5.791   0.381   -7.220
  H      6.230   0.644   -8.890
  C      5.691   0.009   -8.218
  units Angstrom
}

dih_string = "14 10 7 4 80"
set optking fixed_dihedral = $dih_string

optimize('MP2/aug-cc-pvtz')
--------------------------------------------------------------------------

    Molecular point group: c1
  Charge       = 0
  Multiplicity = 1
  Basis Set: AUG-CC-PVTZ
    Blend: AUG-CC-PVTZ
  Basis Set: (AUG-CC-PVTZ AUX)
    Blend: AUG-CC-PVTZ-JKFIT
  @DF-RHF Final Energy:  -157.34990787392877
    Total Energy =                       -157.3499078739287711
  Basis Set: (AUG-CC-PVTZ AUX)
    Blend: AUG-CC-PVTZ-RI
    Molecular point group: c1
  Basis Set: AUG-CC-PVTZ
    Blend: AUG-CC-PVTZ
  Basis Set: (AUG-CC-PVTZ AUX)
    Blend: AUG-CC-PVTZ-JKFIT
  Basis Set: (AUG-CC-PVTZ AUX)
    Blend: AUG-CC-PVTZ-JKFIT
	 Reference Energy          =    -157.3499078739287711 [Eh]
	 Singles Energy            =      -0.0000000000000001 [Eh]
	 Same-Spin Energy          =      -0.1659508040732735 [Eh]
	 Opposite-Spin Energy      =      -0.6394760163159054 [Eh]
	 Correlation Energy        =      -0.8054268203891790 [Eh]
	 Total Energy              =    -158.1553346943179577 [Eh]
	 SCS Total Energy          =    -158.1725960281989387 [Eh]
  @DF-RHF Final Energy:  -157.35272534786748
    Total Energy =                       -157.3527253478674766
  @DF-RHF Final Energy:  -157.35367067008366
    Total Energy =                       -157.3536706700836589
  @DF-RHF Final Energy:  -157.35398856120267
    Total Energy =                       -157.3539885612026694
  @DF-RHF Final Energy:  -157.35398936608226
    Total Energy =                       -157.3539893660822599
  Charge       = 0
  Multiplicity = 1
  Basis Set: AUG-CC-PVTZ
    Blend: AUG-CC-PVTZ
  Basis Set: (AUG-CC-PVTZ AUX)
    Blend: AUG-CC-PVTZ-JKFIT

    Orbital Energies (a.u.)
    -----------------------

    Doubly Occupied:

       1A    -11.211494     2A    -11.210872     3A    -11.205871
       4A    -11.205870     5A     -1.074131     6A     -0.978167
       7A     -0.870029     8A     -0.779946     9A     -0.625253
      10A     -0.620843    11A     -0.576756    12A     -0.535597
      13A     -0.527329    14A     -0.504732    15A     -0.466045
      16A     -0.456993    17A     -0.455346

  @DF-RHF Final Energy:  -157.35399477851936

   => Energetics <=

    Nuclear Repulsion Energy =            133.1092430959483863
    One-Electron Energy =                -474.3159252044853247
    Two-Electron Energy =                 183.8526873300175737
    DFT Exchange-Correlation Energy =       0.0000000000000000
    Empirical Dispersion Energy =           0.0000000000000000
    PCM Polarization Energy =               0.0000000000000000
    EFP Energy =                            0.0000000000000000
    Total Energy =                       -157.3539947785193647
  Basis Set: (AUG-CC-PVTZ AUX)
    Blend: AUG-CC-PVTZ-RI
    Molecular point group: c1
  Basis Set: AUG-CC-PVTZ
    Blend: AUG-CC-PVTZ
  Basis Set: (AUG-CC-PVTZ AUX)
    Blend: AUG-CC-PVTZ-JKFIT
  Basis Set: (AUG-CC-PVTZ AUX)
    Blend: AUG-CC-PVTZ-JKFIT
	 Reference Energy          =    -157.3539947785193647 [Eh]
	 Singles Energy            =      -0.0000000000000000 [Eh]
	 Same-Spin Energy          =      -0.1657551599385402 [Eh]
	 Opposite-Spin Energy      =      -0.6397135376049001 [Eh]
	 Correlation Energy        =      -0.8054686975434403 [Eh]
	 Total Energy              =    -158.1594634760627969 [Eh]

	 ================> DF-SCS-MP2 Energies <==================
	-----------------------------------------------------------
	 SCS Same-Spin Scale       =       0.3333333333333333 [-]
	 SCS Opposite-Spin Scale   =       1.2000000000000000 [-]
	 SCS Same-Spin Energy      =      -0.0552517199795134 [Eh]
	 SCS Opposite-Spin Energy  =      -0.7676562451258802 [Eh]
	 SCS Correlation Energy    =      -0.8229079651053935 [Eh]
	 SCS Total Energy          =    -158.1769027436247654 [Eh]
	-----------------------------------------------------------

  -Total Gradient:
     Atom            X                  Y                   Z
    ------   -----------------  -----------------  -----------------
       1        0.000000540988     0.000005781463    -0.000003713473
       2       -0.000002430259     0.000006209101    -0.000003958916
       3       -0.000006567678     0.000000993638     0.000008190588
       4       -0.001280943616    -0.000549636241    -0.000707587461
       5        0.000005555015     0.000005207082     0.000001872431
       6        0.000012030353     0.000011466269    -0.000010561063
       7        0.001575994134     0.000716172852     0.001548810180
       8        0.000019227102     0.000001554934    -0.000003813104
       9        0.000004260924    -0.000001052409    -0.000006131863
      10        0.000085172033    -0.000010577825    -0.002321398911
      11        0.000005030757    -0.000005041105     0.000002719265
      12        0.000005797940    -0.000003122586     0.000000541672
      13       -0.000007974187    -0.000007285918    -0.000001257865
      14       -0.000415693506    -0.000170669257     0.001496288517

  **** Optimization is complete! (in 6 steps) ****
    Final optimized geometry and variables:
    Molecular point group: c1

    Geometry (in Angstrom), charge = 0, multiplicity = 1:

    H           -0.810139158020     0.786986549891    -1.918655851057
    H           -0.821164234463     2.291382751946    -1.005019258408
    H            0.665035706551     1.368248817364    -1.157640355412
    C           -0.412906727068     1.283796658571    -1.035600266436
    H           -0.430412087742     1.038809258301     1.102010957965
    H           -1.854469366567     0.431895175771     0.289919706266
    C           -0.769331773356     0.500349388048     0.215634008574
    H           -0.731430269099    -1.530321245118     0.912563355539
    H           -0.287873171459    -1.343920617731    -0.767997585552
    C           -0.171574869436    -0.900023108388     0.221900618257
    H            1.708278521472    -1.914558299443     0.592496198833
    H            1.406342715096    -0.533736619589     1.641412060233
    H            1.890400753323    -0.282761339965    -0.030668642289
    C            1.292120250003    -0.910328440949     0.626753329918

*** Psi4 exiting successfully. Buy a developer a beer!
