                               Psi4 1.1 release

  ==> Input File <==

--------------------------------------------------------------------------

memory 5 Gb

molecule phepyrOH_neutral {
  symmetry C1
  0 1
  C      1.885   -1.036   -0.112
  C      2.878   -1.652   2.002
  C      0.807   -0.463   0.561
  C      1.800   -1.079   2.676
  C      4.147   -3.608   -0.188
  C      5.011   -1.416   -0.668
  C      5.236   -4.128   -0.868
  C      6.062   -2.034   -1.326
  C      2.921   -1.631   0.608
  C      4.040   -2.225   -0.090
  C      0.764   -0.484   1.955
  N      6.200   -3.374   -1.442
  O      -0.288   0.076   2.612
  H      1.904   -1.012   -1.199
  H      3.678   -2.112   2.578
  H      0.003   -0.001   -0.006
  H      1.772   -1.098   3.762
  H      3.408   -4.272   0.249
  H      4.961   -0.333   -0.611
  H      5.365   -5.200   -0.974
  H      6.847   -1.447   -1.793
  H      -0.175   -0.018   3.571
  units Angstrom
}

dih_string = "1 9 10 5 255"
set optking fixed_dihedral = $dih_string

optimize('MP2/aug-cc-PVTZ')
--------------------------------------------------------------------------

    Molecular point group: c1
  Charge       = 0
  Multiplicity = 1
  Basis Set: AUG-CC-PVTZ
    Blend: AUG-CC-PVTZ
  Basis Set: (AUG-CC-PVTZ AUX)
    Blend: AUG-CC-PVTZ-JKFIT
  @DF-RHF Final Energy:  -551.28477702574855
    Total Energy =                       -551.2847770257485536
  Basis Set: (AUG-CC-PVTZ AUX)
    Blend: AUG-CC-PVTZ-RI
    Molecular point group: c1
  Basis Set: AUG-CC-PVTZ
    Blend: AUG-CC-PVTZ
  Basis Set: (AUG-CC-PVTZ AUX)
    Blend: AUG-CC-PVTZ-JKFIT
  Basis Set: (AUG-CC-PVTZ AUX)
    Blend: AUG-CC-PVTZ-JKFIT
	 Reference Energy          =    -551.2847770257485536 [Eh]
	 Singles Energy            =      -0.0000000000000001 [Eh]
	 Same-Spin Energy          =      -0.6042078245954277 [Eh]
	 Opposite-Spin Energy      =      -1.8300183842307221 [Eh]
	 Correlation Energy        =      -2.4342262088261499 [Eh]
	 Total Energy              =    -553.7190032345747568 [Eh]
	 SCS Total Energy          =    -553.6822016950238776 [Eh]
  @DF-RHF Final Energy:  -551.29017151596190
    Total Energy =                       -551.2901715159619016
  @DF-RHF Final Energy:  -551.29116505679701
    Total Energy =                       -551.2911650567970128
  @DF-RHF Final Energy:  -551.29113408166074
    Total Energy =                       -551.2911340816607435
  @DF-RHF Final Energy:  -551.29109317725613
    Total Energy =                       -551.2910931772561298
  @DF-RHF Final Energy:  -551.29111503106219
    Total Energy =                       -551.2911150310621906
  Charge       = 0
  Multiplicity = 1
  Basis Set: AUG-CC-PVTZ
    Blend: AUG-CC-PVTZ
  Basis Set: (AUG-CC-PVTZ AUX)
    Blend: AUG-CC-PVTZ-JKFIT

    Orbital Energies (a.u.)
    -----------------------

    Doubly Occupied:

       1A    -20.599369     2A    -15.562368     3A    -11.310254
       4A    -11.271965     5A    -11.271920     6A    -11.262991
       7A    -11.250666     8A    -11.248708     9A    -11.244173
      10A    -11.242297    11A    -11.236393    12A    -11.236216
      13A    -11.235935    14A     -1.416523    15A     -1.258771
      16A     -1.173236    17A     -1.104620    18A     -1.035058
      19A     -1.032078    20A     -1.012373    21A     -0.879103
      22A     -0.863203    23A     -0.853209    24A     -0.811545
      25A     -0.745847    26A     -0.724995    27A     -0.679562
      28A     -0.666384    29A     -0.656502    30A     -0.637526
      31A     -0.615950    32A     -0.601702    33A     -0.601090
      34A     -0.596083    35A     -0.581390    36A     -0.540392
      37A     -0.529430    38A     -0.523351    39A     -0.504863
      40A     -0.490103    41A     -0.417224    42A     -0.381457
      43A     -0.356252    44A     -0.346134    45A     -0.321487

  @DF-RHF Final Energy:  -551.29110863020310

   => Energetics <=

    Nuclear Repulsion Energy =            697.0603401933309442
    One-Electron Energy =               -2130.8415018155678808
    Two-Electron Energy =                 882.4900529920339523
    DFT Exchange-Correlation Energy =       0.0000000000000000
    Empirical Dispersion Energy =           0.0000000000000000
    PCM Polarization Energy =               0.0000000000000000
    EFP Energy =                            0.0000000000000000
    Total Energy =                       -551.2911086302030981
  Basis Set: (AUG-CC-PVTZ AUX)
    Blend: AUG-CC-PVTZ-RI
    Molecular point group: c1
  Basis Set: AUG-CC-PVTZ
    Blend: AUG-CC-PVTZ
  Basis Set: (AUG-CC-PVTZ AUX)
    Blend: AUG-CC-PVTZ-JKFIT
  Basis Set: (AUG-CC-PVTZ AUX)
    Blend: AUG-CC-PVTZ-JKFIT
	 Reference Energy          =    -551.2911086302030981 [Eh]
	 Singles Energy            =      -0.0000000000000001 [Eh]
	 Same-Spin Energy          =      -0.6033551080740762 [Eh]
	 Opposite-Spin Energy      =      -1.8277289526453480 [Eh]
	 Correlation Energy        =      -2.4310840607194244 [Eh]
	 Total Energy              =    -553.7221926909224976 [Eh]

	 ================> DF-SCS-MP2 Energies <==================
	-----------------------------------------------------------
	 SCS Same-Spin Scale       =       0.3333333333333333 [-]
	 SCS Opposite-Spin Scale   =       1.2000000000000000 [-]
	 SCS Same-Spin Energy      =      -0.2011183693580254 [Eh]
	 SCS Opposite-Spin Energy  =      -2.1932747431744173 [Eh]
	 SCS Correlation Energy    =      -2.3943931125324429 [Eh]
	 SCS Total Energy          =    -553.6855017427355961 [Eh]
	-----------------------------------------------------------

  -Total Gradient:
     Atom            X                  Y                   Z
    ------   -----------------  -----------------  -----------------
       1       -0.001164851161    -0.002028949909    -0.000048497881
       2       -0.000007983573     0.000001212159     0.000007348731
       3        0.000025207641    -0.000005490472    -0.000025575607
       4       -0.000011016330    -0.000001853699     0.000006957607
       5       -0.001242684157     0.000035389583    -0.002016558593
       6        0.000004965771     0.000001092863    -0.000013745540
       7        0.000031604306     0.000017336410     0.000006965228
       8       -0.000014059980    -0.000009628200    -0.000018068994
       9        0.001123866565     0.003044282998    -0.000945302685
      10        0.001266727889    -0.001042753764     0.003017727358
      11        0.000004696340    -0.000010064752     0.000010436935
      12       -0.000012765392    -0.000004299869     0.000002929604
      13        0.000003926003     0.000002383998    -0.000002981022
      14        0.000002584901    -0.000000139700    -0.000005627128
      15        0.000007943941    -0.000002450166    -0.000000342060
      16       -0.000009373086     0.000001811887     0.000009622884
      17       -0.000001339366     0.000000072764    -0.000001306776
      18       -0.000003078536    -0.000003692303     0.000001251266
      19        0.000000322953     0.000005155532     0.000005391156
      20       -0.000006404605    -0.000001992833    -0.000001197369
      21        0.000003458966     0.000001768037     0.000010392971
      22       -0.000001749098     0.000000809440     0.000000179917

  **** Optimization is complete! (in 7 steps) ****
    Final optimized geometry and variables:
    Molecular point group: c1

    Geometry (in Angstrom), charge = 0, multiplicity = 1:

    C           -1.235768416079     0.751678198113    -0.546591793395
    C           -0.284162171377     0.095602366628     1.549833065312
    C           -2.321965849201     1.303437666716     0.111264444022
    C           -1.367539446023     0.648818197685     2.216222257524
    C            1.052971902133    -1.847224756771    -0.645957040022
    C            1.893762735657     0.305111448354    -1.185135644718
    C            2.119318289332    -2.385844441729    -1.350034209946
    C            2.924117277702    -0.322713070501    -1.868608335262
    C           -0.198735891557     0.149338206466     0.162477172968
    C            0.930785153818    -0.466187421336    -0.544823733342
    C           -2.388181401778     1.254813048612     1.496563787546
    N            3.051238418822    -1.648599428957    -1.958561071161
    O           -3.479809225144     1.815847904796     2.088634071755
    H           -1.190740193290     0.784752620971    -1.625145636726
    H            0.507063214520    -0.375631661317     2.113984247738
    H           -3.128260550523     1.768807518694    -0.434056098610
    H           -1.416956376870     0.609285610459     3.295751163121
    H            0.322089634050    -2.492521531691    -0.182047396152
    H            1.842546701369     1.382815672990    -1.143235845011
    H            2.227710928395    -3.458047471199    -1.435825233060
    H            3.683627513673     0.264490966733    -2.365644107034
    H           -3.405404102103     1.713676131804     3.042145315869

*** Psi4 exiting successfully. Buy a developer a beer!
