                               Psi4 1.1 release

  ==> Input File <==

--------------------------------------------------------------------------

memory 5 Gb

molecule phepyrOH_neutral {
  symmetry C1
  0 1
  C      1.885   -1.036   -0.112
  C      2.878   -1.652   2.002
  C      0.807   -0.463   0.561
  C      1.800   -1.079   2.676
  C      3.862   -2.773   -1.356
  C      5.298   -2.250   0.501
  C      4.965   -3.329   -1.983
  C      6.337   -2.829   -0.209
  C      2.921   -1.631   0.608
  C      4.040   -2.225   -0.090
  C      0.764   -0.484   1.955
  N      6.202   -3.372   -1.440
  O      -0.288   0.076   2.612
  H      1.904   -1.012   -1.199
  H      3.678   -2.112   2.578
  H      0.003   -0.001   -0.006
  H      1.772   -1.098   3.762
  H      2.895   -2.772   -1.850
  H      5.475   -1.833   1.487
  H      4.879   -3.768   -2.972
  H      7.337   -2.875   0.208
  H      -0.502   0.942   2.229
  units Angstrom
}

dih_string = "3 11 13 22 315"
set optking fixed_dihedral = $dih_string

optimize('MP2/aug-cc-PVTZ')
--------------------------------------------------------------------------

    Molecular point group: c1
  Charge       = 0
  Multiplicity = 1
  Basis Set: AUG-CC-PVTZ
    Blend: AUG-CC-PVTZ
  Basis Set: (AUG-CC-PVTZ AUX)
    Blend: AUG-CC-PVTZ-JKFIT
  @DF-RHF Final Energy:  -551.28342375904833
    Total Energy =                       -551.2834237590483326
  Basis Set: (AUG-CC-PVTZ AUX)
    Blend: AUG-CC-PVTZ-RI
    Molecular point group: c1
  Basis Set: AUG-CC-PVTZ
    Blend: AUG-CC-PVTZ
  Basis Set: (AUG-CC-PVTZ AUX)
    Blend: AUG-CC-PVTZ-JKFIT
  Basis Set: (AUG-CC-PVTZ AUX)
    Blend: AUG-CC-PVTZ-JKFIT
	 Reference Energy          =    -551.2834237590483326 [Eh]
	 Singles Energy            =      -0.0000000000000001 [Eh]
	 Same-Spin Energy          =      -0.6049792314907251 [Eh]
	 Opposite-Spin Energy      =      -1.8306316789715020 [Eh]
	 Correlation Energy        =      -2.4356109104622270 [Eh]
	 Total Energy              =    -553.7190346695105063 [Eh]
	 SCS Total Energy          =    -553.6818415176443295 [Eh]
  @DF-RHF Final Energy:  -551.28935024566795
    Total Energy =                       -551.2893502456679471
  @DF-RHF Final Energy:  -551.29070551951168
    Total Energy =                       -551.2907055195116754
  @DF-RHF Final Energy:  -551.29075914137763
    Total Energy =                       -551.2907591413776345
  @DF-RHF Final Energy:  -551.29084703927481
    Total Energy =                       -551.2908470392748086
  @DF-RHF Final Energy:  -551.29094036878985
    Total Energy =                       -551.2909403687898475
  Charge       = 0
  Multiplicity = 1
  Basis Set: AUG-CC-PVTZ
    Blend: AUG-CC-PVTZ
  Basis Set: (AUG-CC-PVTZ AUX)
    Blend: AUG-CC-PVTZ-JKFIT

    Orbital Energies (a.u.)
    -----------------------

    Doubly Occupied:

       1A    -20.595322     2A    -15.560639     3A    -11.309289
       4A    -11.271777     5A    -11.271750     6A    -11.265406
       7A    -11.252055     8A    -11.250466     9A    -11.248483
      10A    -11.243591    11A    -11.238940    12A    -11.235971
      13A    -11.235889    14A     -1.410872    15A     -1.258111
      16A     -1.175705    17A     -1.105822    18A     -1.039124
      19A     -1.030342    20A     -1.013011    21A     -0.880752
      22A     -0.872148    23A     -0.842373    24A     -0.812611
      25A     -0.747499    26A     -0.725327    27A     -0.683865
      28A     -0.662277    29A     -0.655364    30A     -0.636576
      31A     -0.630277    32A     -0.606295    33A     -0.599740
      34A     -0.593308    35A     -0.561898    36A     -0.542589
      37A     -0.533776    38A     -0.523699    39A     -0.500468
      40A     -0.492627    41A     -0.417433    42A     -0.398615
      43A     -0.355551    44A     -0.348282    45A     -0.314625

  @DF-RHF Final Energy:  -551.29096428455023

   => Energetics <=

    Nuclear Repulsion Energy =            697.5986612491919914
    One-Electron Energy =               -2131.8781734335625515
    Two-Electron Energy =                 882.9885478998203325
    DFT Exchange-Correlation Energy =       0.0000000000000000
    Empirical Dispersion Energy =           0.0000000000000000
    PCM Polarization Energy =               0.0000000000000000
    EFP Energy =                            0.0000000000000000
    Total Energy =                       -551.2909642845502276
  Basis Set: (AUG-CC-PVTZ AUX)
    Blend: AUG-CC-PVTZ-RI
    Molecular point group: c1
  Basis Set: AUG-CC-PVTZ
    Blend: AUG-CC-PVTZ
  Basis Set: (AUG-CC-PVTZ AUX)
    Blend: AUG-CC-PVTZ-JKFIT
  Basis Set: (AUG-CC-PVTZ AUX)
    Blend: AUG-CC-PVTZ-JKFIT
	 Reference Energy          =    -551.2909642845502276 [Eh]
	 Singles Energy            =      -0.0000000000000001 [Eh]
	 Same-Spin Energy          =      -0.6038802886299361 [Eh]
	 Opposite-Spin Energy      =      -1.8281706959553157 [Eh]
	 Correlation Energy        =      -2.4320509845852518 [Eh]
	 Total Energy              =    -553.7230152691354306 [Eh]

	 ================> DF-SCS-MP2 Energies <==================
	-----------------------------------------------------------
	 SCS Same-Spin Scale       =       0.3333333333333333 [-]
	 SCS Opposite-Spin Scale   =       1.2000000000000000 [-]
	 SCS Same-Spin Energy      =      -0.2012934295433120 [Eh]
	 SCS Opposite-Spin Energy  =      -2.1938048351463788 [Eh]
	 SCS Correlation Energy    =      -2.3950982646896910 [Eh]
	 SCS Total Energy          =    -553.6860625492398640 [Eh]
	-----------------------------------------------------------

  -Total Gradient:
     Atom            X                  Y                   Z
    ------   -----------------  -----------------  -----------------
       1       -0.000005224238     0.000015010421     0.000000254415
       2       -0.000007485514     0.000011004467     0.000031390087
       3       -0.001091718022    -0.002118605785    -0.000111488461
       4        0.000013087563    -0.000004676078    -0.000017197894
       5        0.000010235248     0.000027996831    -0.000023414050
       6       -0.000008642230    -0.000043833200     0.000018759600
       7       -0.000036416015    -0.000061547916     0.000029655951
       8        0.000011887624     0.000082094861    -0.000019462723
       9        0.000039578065    -0.000034072509    -0.000036174727
      10       -0.000033603466     0.000036443103     0.000025666611
      11        0.002057826075     0.003583973885     0.000673718890
      12        0.000017280059    -0.000008790771    -0.000009720567
      13       -0.002924233818    -0.002800324941    -0.002530021742
      14        0.000001465946    -0.000000673513     0.000006468425
      15        0.000002318939     0.000004691810    -0.000007139842
      16        0.000007759720    -0.000003918069    -0.000006271616
      17       -0.000005667142    -0.000004658264     0.000000532957
      18        0.000014616510    -0.000011287216    -0.000001280980
      19        0.000007513453    -0.000004004727    -0.000011770996
      20       -0.000000185690     0.000018104217    -0.000013539765
      21       -0.000004209774    -0.000022163739     0.000017801078
      22        0.001933816695     0.001339237133     0.001983235350

  **** Optimization is complete! (in 7 steps) ****
    Final optimized geometry and variables:
    Molecular point group: c1

    Geometry (in Angstrom), charge = 0, multiplicity = 1:

    C           -1.236496218642     0.778408514464    -0.558836686492
    C           -0.315299959575     0.057477951898     1.528723213809
    C           -2.307995237068     1.349320547656     0.108310212866
    C           -1.375787256092     0.638312697035     2.203316112810
    C            0.742641476243    -1.095986196634    -1.809313850990
    C            2.186921675082    -0.483373724259    -0.033965803241
    C            1.839270169166    -1.658402621516    -2.442357097573
    C            3.223967738248    -1.071920786135    -0.739579646357
    C           -0.223958380578     0.122201303486     0.138815698058
    C            0.901577799221    -0.485615774365    -0.568387619445
    C           -2.369147928659     1.296953707984     1.494470381984
    N            3.072256434397    -1.656586186065    -1.930215813919
    O           -3.435166434755     1.795878924109     2.196914008628
    H           -1.180497263770     0.856184354197    -1.634440301681
    H            0.440758935070    -0.473084930494     2.088138971951
    H           -3.094856856098     1.842030484743    -0.444081088710
    H           -1.451288798765     0.583724895473     3.278104811380
    H           -0.232146627380    -1.156915737533    -2.269234798567
    H            2.385387348211    -0.004965666503     0.913239397471
    H            1.721708791424    -2.139346682143    -3.403462421836
    H            4.225738638297    -1.068606366654    -0.332967405778
    H           -3.672261449038     2.656270428638     1.839593721326

*** Psi4 exiting successfully. Buy a developer a beer!
