                              Psi4 1.0.0 Driver

  ==> Input File <==

--------------------------------------------------------------------------

memory 1000 mb

molecule butane {
  symmetry C1
  0 1
  H      1.604   0.760   -8.260
  H      1.745   2.388   -8.880
  H      2.043   1.024   -9.930
  C      2.142   1.395   -8.932
  H      4.169   2.051   -9.210
  H      3.731   1.788   -7.539
  C      3.631   1.416   -8.537
  H      3.492   -0.656   -9.084
  H      5.109   -0.004   -9.180
  C      4.203   -0.012   -8.612
  H      4.892   -1.516   -7.242
  H      3.589   -0.533   -6.621
  H      5.206   0.120   -6.717
  C      4.495   -0.524   -7.190
  units Angstrom
}

dih_string = "4 7 10 14 250"
set optking fixed_dihedral = $dih_string

optimize('MP2/6-31G(d)')
--------------------------------------------------------------------------

    Molecular point group: c1
  Charge       = 0
  Multiplicity = 1
  Basis Set: 6-31G(D)
  Basis Set:
  @DF-RHF Final Energy:  -157.28820538514299
    Total Energy =                       -157.2882053851428736
  Basis Set:
    Molecular point group: c1
  Basis Set: 6-31G(D)
  Basis Set:
  Basis Set:
	 Reference Energy          =    -157.2882053851429873 [Eh]
	 Singles Energy            =      -0.0000000000000000 [Eh]
	 Same-Spin Energy          =      -0.1244420157965633 [Eh]
	 Opposite-Spin Energy      =      -0.4204110098779946 [Eh]
	 Correlation Energy        =      -0.5448530256745580 [Eh]
	 Total Energy              =    -157.8330584108175572 [Eh]
	 SCS Total Energy          =    -157.8341792689287786 [Eh]
  Basis Set: 6-31G(D)
  Basis Set:
  @DF-RHF Final Energy:  -157.29119747738193
    Total Energy =                       -157.2911974773820134
  Basis Set:
  Basis Set: 6-31G(D)
  Basis Set:
  @DF-RHF Final Energy:  -157.29207173275424
    Total Energy =                       -157.2920717327542661
  @DF-RHF Final Energy:  -157.29236132447127
    Total Energy =                       -157.2923613244714716
  @DF-RHF Final Energy:  -157.29237655572342
    Total Energy =                       -157.2923765557233651
  @DF-RHF Final Energy:  -157.29238341961587
    Total Energy =                       -157.2923834196160158
  @DF-RHF Final Energy:  -157.29237870782001
    Total Energy =                       -157.2923787078198643
	 Singles Energy            =      -0.0000000000000000 [Eh]
	 Same-Spin Energy          =      -0.1242965955074544 [Eh]
	 Opposite-Spin Energy      =      -0.4224256524312348 [Eh]
	 Correlation Energy        =      -0.5467222479386893 [Eh]
	 Total Energy              =    -157.8391009557587097 [Eh]
	 SCS Total Energy          =    -157.8407216892399845 [Eh]
  Charge       = 0
  Multiplicity = 1
  Basis Set: 6-31G(D)
  Basis Set:

    Orbital Energies (a.u.)
    -----------------------

    Doubly Occupied:

       1A    -11.215478     2A    -11.214918     3A    -11.210550
       4A    -11.210544     5A     -1.067969     6A     -0.978351
       7A     -0.861583     8A     -0.784540     9A     -0.626540
      10A     -0.604203    11A     -0.578422    12A     -0.546555
      13A     -0.511763    14A     -0.507196    15A     -0.466737
      16A     -0.453933    17A     -0.453053

  @DF-RHF Final Energy:  -157.29238217241004

   => Energetics <=

    Nuclear Repulsion Energy =            131.3332846213234575
    One-Electron Energy =                -470.6666664790578807
    Two-Electron Energy =                 182.0409996853243229
    DFT Exchange-Correlation Energy =       0.0000000000000000
    Empirical Dispersion Energy =           0.0000000000000000
    PCM Polarization Energy =               0.0000000000000000
    EFP Energy =                            0.0000000000000000
    Total Energy =                       -157.2923821724101003
  Basis Set:
    Molecular point group: c1
  Basis Set: 6-31G(D)
  Basis Set:
  Basis Set:
	 Reference Energy          =    -157.2923821724100435 [Eh]
	 Singles Energy            =      -0.0000000000000000 [Eh]
	 Same-Spin Energy          =      -0.1242965118749377 [Eh]
	 Opposite-Spin Energy      =      -0.4224222717445641 [Eh]
	 Correlation Energy        =      -0.5467187836195018 [Eh]
	 Total Energy              =    -157.8391009560295402 [Eh]

	 ================> DF-SCS-MP2 Energies <==================
	-----------------------------------------------------------
	 SCS Same-Spin Scale       =       0.3333333333333333 [-]
	 SCS Opposite-Spin Scale   =       1.2000000000000000 [-]
	 SCS Same-Spin Energy      =      -0.0414321706249792 [Eh]
	 SCS Opposite-Spin Energy  =      -0.5069067260934769 [Eh]
	 SCS Correlation Energy    =      -0.5483388967184561 [Eh]
	 SCS Total Energy          =    -157.8407210691285059 [Eh]
	-----------------------------------------------------------

  -Total Gradient:
     Atom            X                  Y                   Z
    ------   -----------------  -----------------  -----------------
       1        0.000008943454     0.000002699390     0.000004095262
       2       -0.000002140084     0.000003849213    -0.000002926145
       3       -0.000004765686    -0.000003158815    -0.000001630821
       4        0.000452947877     0.000196904636    -0.001573532477
       5       -0.000014913072    -0.000002506883     0.000005532078
       6       -0.000002796702     0.000007160342     0.000000305529
       7       -0.000036867874     0.000020379798     0.002150211923
       8        0.000002805667    -0.000007184137    -0.000000511077
       9       -0.000006631781    -0.000007006603     0.000013041349
      10       -0.001900820459    -0.000882563097    -0.000484492524
      11        0.000004378317    -0.000002895720     0.000001043742
      12       -0.000001989095     0.000000332860    -0.000010406187
      13       -0.000000280797     0.000000840927     0.000005884680
      14        0.001502130235     0.000673148088    -0.000106615333

  **** Optimization is complete! (in 8 steps) ****
    Final optimized geometry and variables:
    Molecular point group: c1

    Geometry (in Angstrom), charge = 0, multiplicity = 1:

    H           -2.066382270961     0.190305120358     0.005267563002
    H           -1.914533132329     1.838770007616    -0.616910567942
    H           -1.602403667301     0.458571757939    -1.678610065055
    C           -1.482122685418     0.834926020618    -0.658802281279
    H            0.539653212924     1.495594145987    -0.938495344281
    H            0.095249549559     1.282998283116     0.740168444697
    C           -0.010383695102     0.838456437940    -0.256191906280
    H           -0.064641242282    -1.269379630492    -0.766491392720
    H            1.537438529333    -0.571282864773    -0.847773521372
    C            0.612212824783    -0.570641732097    -0.261373427491
    H            1.330586028777    -2.098627904913     1.119109008327
    H            0.016189088862    -1.102656494716     1.757859231878
    H            1.649091887658    -0.437781388382     1.638455415780
    C            0.920585729959    -1.084810765938     1.141717013847

*** Psi4 exiting successfully. Buy a developer a beer!
