                              Psi4 1.0.0 Driver

  ==> Input File <==

--------------------------------------------------------------------------

memory 1000 mb

molecule butane {
  symmetry C1
  0 1
  H      1.604   0.760   -8.260
  H      1.745   2.388   -8.880
  H      2.043   1.024   -9.930
  C      2.142   1.395   -8.932
  H      4.169   2.051   -9.210
  H      3.731   1.788   -7.539
  C      3.631   1.416   -8.537
  H      3.929   -0.552   -7.731
  H      3.808   -0.510   -9.472
  C      4.203   -0.012   -8.612
  H      6.134   -0.938   -8.769
  H      6.133   0.552   -7.857
  H      6.013   0.594   -9.599
  C      5.737   0.054   -8.717
  units Angstrom
}

dih_string = "4 7 10 14 160"
set optking fixed_dihedral = $dih_string

optimize('B3LYP/cc-PVDZ')
--------------------------------------------------------------------------

    Molecular point group: c1
  Charge       = 0
  Multiplicity = 1
  Basis Set: CC-PVDZ
   => B3LYP Composite Functional <=
  Basis Set:
  @DF-RKS Final Energy:  -158.44790836019214
    Total Energy =                       -158.4479083601921445
    Molecular point group: c1
  Basis Set: CC-PVDZ
  Basis Set:
   => B3LYP Composite Functional <=
  Basis Set: CC-PVDZ
   => B3LYP Composite Functional <=
  Basis Set:
  @DF-RKS Final Energy:  -158.45379512491675
    Total Energy =                       -158.4537951249167520
  Basis Set: CC-PVDZ
  Basis Set:
   => B3LYP Composite Functional <=
  Basis Set: CC-PVDZ
   => B3LYP Composite Functional <=
  Basis Set:
  @DF-RKS Final Energy:  -158.45653532071461
    Total Energy =                       -158.4565353207146075
  Basis Set: CC-PVDZ
  Basis Set:
  @DF-RKS Final Energy:  -158.45738565608693
    Total Energy =                       -158.4573856560869274
  @DF-RKS Final Energy:  -158.45762192051492
    Total Energy =                       -158.4576219205149243
   => B3LYP Composite Functional <=
  Basis Set:
  @DF-RKS Final Energy:  -158.45765284568375
    Total Energy =                       -158.4576528456837536
  Basis Set: CC-PVDZ
  Basis Set:
   => B3LYP Composite Functional <=
  Basis Set: CC-PVDZ
   => B3LYP Composite Functional <=
  Basis Set:
  @DF-RKS Final Energy:  -158.45765074868518
    Total Energy =                       -158.4576507486851824
  Basis Set: CC-PVDZ
  Basis Set:
   => B3LYP Composite Functional <=
  Charge       = 0
  Multiplicity = 1
  Basis Set: CC-PVDZ
   => B3LYP Composite Functional <=
  Basis Set:

    Orbital Energies (a.u.)
    -----------------------

    Doubly Occupied:

       1A    -10.180205     2A    -10.180042     3A    -10.176017
       4A    -10.176012     5A     -0.790164     6A     -0.720587
       7A     -0.627084     8A     -0.572009     9A     -0.462688
      10A     -0.422023    11A     -0.418620    12A     -0.404508
      13A     -0.365084    14A     -0.349911    15A     -0.329724
      16A     -0.320627    17A     -0.318769

  @DF-RKS Final Energy:  -158.45765028495157

   => Energetics <=

    Nuclear Repulsion Energy =            129.9093325158600862
    One-Electron Energy =                -468.3079623715664184
    Two-Electron Energy =                 200.5240709532653796
    DFT Exchange-Correlation Energy =     -20.5830913825106485
    Empirical Dispersion Energy =           0.0000000000000000
    PCM Polarization Energy =               0.0000000000000000
    EFP Energy =                            0.0000000000000000
    Total Energy =                       -158.4576502849515691
    Molecular point group: c1
  Basis Set: CC-PVDZ
  Basis Set:
   => B3LYP Composite Functional <=

  -Total Gradient:
     Atom            X                  Y                   Z
    ------   -----------------  -----------------  -----------------
       1       -0.000012424600    -0.000005967881     0.000000490444
       2       -0.000007842953     0.000012944864     0.000001520687
       3       -0.000003723306     0.000002194418    -0.000013805656
       4        0.000643697865     0.000393090582    -0.002375617033
       5        0.000000008124    -0.000016617024     0.000015666993
       6       -0.000014555100    -0.000008019146     0.000013777485
       7       -0.000933625388    -0.000484453598     0.002321299667
       8        0.000011590656     0.000005161077     0.000018056433
       9       -0.000003274220     0.000013232856     0.000017556006
      10        0.000484263575     0.000051220368     0.002500278219
      11        0.000007572337    -0.000013726268     0.000000720282
      12        0.000011574323     0.000005488343     0.000003805463
      13        0.000005266876    -0.000000458311    -0.000012220963
      14       -0.000189100643     0.000045356325    -0.002485391149

  **** Optimization is complete! (in 8 steps) ****
    Final optimized geometry and variables:
    Molecular point group: c1

    Geometry (in Angstrom), charge = 0, multiplicity = 1:

    H           -2.404299795747     0.022973346809     0.435519890610
    H           -2.254095568008     1.696917390497    -0.147727710604
    H           -1.962164470239     0.335756618003    -1.258238201414
    C           -1.817676194053     0.687534527634    -0.222533556709
    H            0.207164041163     1.361140662293    -0.531647667908
    H           -0.198154178613     1.112207352336     1.166348709505
    C           -0.334702107845     0.684933805194     0.156175828118
    H           -0.000606604061    -1.304135693243     0.967404414680
    H           -0.083780427809    -1.242002186132    -0.792900701160
    C            0.311661441207    -0.707183138006     0.091164841497
    H            2.270659572166    -1.680924158762    -0.030054722916
    H            2.283835433650    -0.139273763052     0.857624705464
    H            2.164750502437    -0.140145549754    -0.916623555290
    C            1.838759286129    -0.667176044148    -0.003785995891

*** Psi4 exiting successfully. Buy a developer a beer!
