                               Psi4 1.1 release

  ==> Input File <==

--------------------------------------------------------------------------

memory 5000 mb

molecule butane {
  symmetry C1
  0 1
  H      2.001   0.724   -9.753
  H      1.556   1.067   -8.098
  H      1.835   2.379   -9.218
  C      2.142   1.395   -8.932
  H      4.169   2.051   -9.210
  H      3.731   1.788   -7.539
  C      3.631   1.416   -8.537
  H      3.665   -0.647   -7.940
  H      4.104   -0.384   -9.610
  C      4.203   -0.012   -8.612
  H      6.088   -0.983   -8.270
  H      5.791   0.381   -7.220
  H      6.230   0.644   -8.890
  C      5.691   0.009   -8.218
  units Angstrom
}

dih_string = "10 7 4 3 200"
set optking fixed_dihedral = $dih_string

optimize('MP2/aug-cc-pvtz')
--------------------------------------------------------------------------

    Molecular point group: c1
  Charge       = 0
  Multiplicity = 1
  Basis Set: AUG-CC-PVTZ
    Blend: AUG-CC-PVTZ
  Basis Set: (AUG-CC-PVTZ AUX)
    Blend: AUG-CC-PVTZ-JKFIT
  @DF-RHF Final Energy:  -157.35142900398850
    Total Energy =                       -157.3514290039884997
  Basis Set: (AUG-CC-PVTZ AUX)
    Blend: AUG-CC-PVTZ-RI
    Molecular point group: c1
  Basis Set: AUG-CC-PVTZ
    Blend: AUG-CC-PVTZ
  Basis Set: (AUG-CC-PVTZ AUX)
    Blend: AUG-CC-PVTZ-JKFIT
  Basis Set: (AUG-CC-PVTZ AUX)
    Blend: AUG-CC-PVTZ-JKFIT
	 Reference Energy          =    -157.3514290039884997 [Eh]
	 Singles Energy            =      -0.0000000000000000 [Eh]
	 Same-Spin Energy          =      -0.1654003917554611 [Eh]
	 Opposite-Spin Energy      =      -0.6388860923061469 [Eh]
	 Correlation Energy        =      -0.8042864840616080 [Eh]
	 Total Energy              =    -158.1557154880501059 [Eh]
	 SCS Total Energy          =    -158.1732257786743503 [Eh]
  @DF-RHF Final Energy:  -157.35411101169086
    Total Energy =                       -157.3541110116908612
  @DF-RHF Final Energy:  -157.35493944646316
    Total Energy =                       -157.3549394464631632
  @DF-RHF Final Energy:  -157.35522616348061
    Total Energy =                       -157.3552261634806086
  @DF-RHF Final Energy:  -157.35524480355454
    Total Energy =                       -157.3552448035545410
  Charge       = 0
  Multiplicity = 1
  Basis Set: AUG-CC-PVTZ
    Blend: AUG-CC-PVTZ
  Basis Set: (AUG-CC-PVTZ AUX)
    Blend: AUG-CC-PVTZ-JKFIT

    Orbital Energies (a.u.)
    -----------------------

    Doubly Occupied:

       1A    -11.211452     2A    -11.210796     3A    -11.206001
       4A    -11.205912     5A     -1.074110     6A     -0.981860
       7A     -0.861161     8A     -0.788190     9A     -0.640782
      10A     -0.585063    11A     -0.577234    12A     -0.568872
      13A     -0.513397    14A     -0.495214    15A     -0.470114
      16A     -0.460651    17A     -0.456136

  @DF-RHF Final Energy:  -157.35524940086751

   => Energetics <=

    Nuclear Repulsion Energy =            131.5036649921994751
    One-Electron Energy =                -471.1039382887000784
    Two-Electron Energy =                 182.2450238956331248
    DFT Exchange-Correlation Energy =       0.0000000000000000
    Empirical Dispersion Energy =           0.0000000000000000
    PCM Polarization Energy =               0.0000000000000000
    EFP Energy =                            0.0000000000000000
    Total Energy =                       -157.3552494008675069
  Basis Set: (AUG-CC-PVTZ AUX)
    Blend: AUG-CC-PVTZ-RI
    Molecular point group: c1
  Basis Set: AUG-CC-PVTZ
    Blend: AUG-CC-PVTZ
  Basis Set: (AUG-CC-PVTZ AUX)
    Blend: AUG-CC-PVTZ-JKFIT
  Basis Set: (AUG-CC-PVTZ AUX)
    Blend: AUG-CC-PVTZ-JKFIT
	 Reference Energy          =    -157.3552494008675069 [Eh]
	 Singles Energy            =      -0.0000000000000000 [Eh]
	 Same-Spin Energy          =      -0.1654641301570132 [Eh]
	 Opposite-Spin Energy      =      -0.6393291905126832 [Eh]
	 Correlation Energy        =      -0.8047933206696964 [Eh]
	 Total Energy              =    -158.1600427215371951 [Eh]

	 ================> DF-SCS-MP2 Energies <==================
	-----------------------------------------------------------
	 SCS Same-Spin Scale       =       0.3333333333333333 [-]
	 SCS Opposite-Spin Scale   =       1.2000000000000000 [-]
	 SCS Same-Spin Energy      =      -0.0551547100523377 [Eh]
	 SCS Opposite-Spin Energy  =      -0.7671950286152198 [Eh]
	 SCS Correlation Energy    =      -0.8223497386675576 [Eh]
	 SCS Total Energy          =    -158.1775991395350616 [Eh]
	-----------------------------------------------------------

  -Total Gradient:
     Atom            X                  Y                   Z
    ------   -----------------  -----------------  -----------------
       1       -0.000009022772     0.000014197636     0.000020624994
       2        0.000005553901     0.000008326748     0.000003367305
       3        0.000633288490    -0.000549328449    -0.002619431344
       4       -0.000605816845     0.000783615128     0.002542563071
       5       -0.000013217361    -0.000002507287     0.000024400962
       6        0.000005266977    -0.000005145472    -0.000000027375
       7       -0.000495042005    -0.000519730812     0.001932174861
       8       -0.000009306996     0.000003225389    -0.000010195524
       9        0.000003945332    -0.000005386714     0.000020511819
      10        0.000479576593     0.000272426156    -0.001886186097
      11        0.000007877161     0.000006215373     0.000002222225
      12       -0.000005856055    -0.000002578786    -0.000005872653
      13        0.000006490960    -0.000005677974     0.000014061898
      14       -0.000003737383     0.000002349063    -0.000038214141

  **** Optimization is complete! (in 6 steps) ****
    Final optimized geometry and variables:
    Molecular point group: c1

    Geometry (in Angstrom), charge = 0, multiplicity = 1:

    H           -1.959602744686     0.046836086272    -1.190786486330
    H           -2.389897629965     0.353706096120     0.483972998660
    H           -2.115440305715     1.696682966067    -0.632274106111
    C           -1.776711126543     0.705061388045    -0.342341054320
    H            0.248944236140     1.338850643928    -0.670543509596
    H           -0.154187793151     1.117199959216     1.014233807600
    C           -0.300202991301     0.695771832105     0.018933710584
    H           -0.260994063998    -1.361071195895     0.612401202041
    H            0.198138220663    -1.081524457123    -1.051173870618
    C            0.306938556271    -0.693072902886    -0.037697302644
    H            2.193289869781    -1.707091739963     0.303156786332
    H            1.892137842028    -0.352141152707     1.385225262972
    H            2.352369335422    -0.056016950437    -0.285271550370
    C            1.769576045745    -0.707376525354     0.363713188608

*** Psi4 exiting successfully. Buy a developer a beer!
