                               Psi4 1.1 release

  ==> Input File <==

--------------------------------------------------------------------------

memory 5 Gb

molecule phepyrFOH_cation {
  symmetry C1
  1 1
  C      1.885   -1.036   -0.112
  C      0.807   -0.463   0.561
  C      4.830   -1.443   -0.930
  C      4.321   -3.578   0.063
  C      1.800   -1.079   2.676
  C      5.894   -2.040   -1.592
  C      5.398   -4.120   -0.624
  C      2.921   -1.631   0.608
  C      4.038   -2.225   -0.095
  C      0.764   -0.484   1.955
  C      2.878   -1.652   2.002
  N      6.144   -3.345   -1.422
  O      -0.289   0.076   2.612
  F      3.866   -2.220   2.709
  H      1.904   -1.012   -1.199
  H      0.002   -0.002   -0.006
  H      4.632   -0.385   -1.072
  H      3.719   -4.212   0.708
  H      1.772   -1.099   3.762
  H      6.561   -1.511   -2.259
  H      5.691   -5.159   -0.561
  H      6.930   -3.764   -1.918
  H      -0.923   0.446   1.977
  units Angstrom
}

dih_string = "2 10 13 23 0.001"
set optking fixed_dihedral = $dih_string

optimize('MP2/aug-cc-PVTZ')
--------------------------------------------------------------------------

    Molecular point group: c1
  Charge       = 1
  Multiplicity = 1
  Basis Set: AUG-CC-PVTZ
    Blend: AUG-CC-PVTZ
  Basis Set: (AUG-CC-PVTZ AUX)
    Blend: AUG-CC-PVTZ-JKFIT
  @DF-RHF Final Energy:  -650.55942279009969
    Total Energy =                       -650.5594227900996884
  Basis Set: (AUG-CC-PVTZ AUX)
    Blend: AUG-CC-PVTZ-RI
    Molecular point group: c1
  Basis Set: AUG-CC-PVTZ
    Blend: AUG-CC-PVTZ
  Basis Set: (AUG-CC-PVTZ AUX)
    Blend: AUG-CC-PVTZ-JKFIT
  Basis Set: (AUG-CC-PVTZ AUX)
    Blend: AUG-CC-PVTZ-JKFIT
	 Reference Energy          =    -650.5594227900996884 [Eh]
	 Singles Energy            =      -0.0000000000000003 [Eh]
	 Same-Spin Energy          =      -0.6691575562519839 [Eh]
	 Opposite-Spin Energy      =      -2.0141077245323542 [Eh]
	 Correlation Energy        =      -2.6832652807843385 [Eh]
	 Total Energy              =    -653.2426880708840145 [Eh]
	 SCS Total Energy          =    -653.1994045782892044 [Eh]
  @DF-RHF Final Energy:  -650.56515478695110
    Total Energy =                       -650.5651547869510978
  @DF-RHF Final Energy:  -650.56693389317627
    Total Energy =                       -650.5669338931761558
  @DF-RHF Final Energy:  -650.56745811329824
    Total Energy =                       -650.5674581132982439
  @DF-RHF Final Energy:  -650.56782663595754
    Total Energy =                       -650.5678266359575446
  @DF-RHF Final Energy:  -650.56825740811553
    Total Energy =                       -650.5682574081154144
  @DF-RHF Final Energy:  -650.56871885522901
    Total Energy =                       -650.5687188552290081
  @DF-RHF Final Energy:  -650.56915307726740
    Total Energy =                       -650.5691530772674014
  @DF-RHF Final Energy:  -650.56951302531706
    Total Energy =                       -650.5695130253170646
  @DF-RHF Final Energy:  -650.56979425090901
    Total Energy =                       -650.5697942509091263
  @DF-RHF Final Energy:  -650.56999425238473
    Total Energy =                       -650.5699942523847312
  @DF-RHF Final Energy:  -650.57010487579805
    Total Energy =                       -650.5701048757980516
  @DF-RHF Final Energy:  -650.57012922777278
    Total Energy =                       -650.5701292277728953
  @DF-RHF Final Energy:  -650.57013646193434
    Total Energy =                       -650.5701364619344531
  @DF-RHF Final Energy:  -650.57016830561190
    Total Energy =                       -650.5701683056120146
  Charge       = 1
  Multiplicity = 1
  Basis Set: AUG-CC-PVTZ
    Blend: AUG-CC-PVTZ
  Basis Set: (AUG-CC-PVTZ AUX)
    Blend: AUG-CC-PVTZ-JKFIT

    Orbital Energies (a.u.)
    -----------------------

    Doubly Occupied:

       1A    -26.443728     2A    -20.717829     3A    -15.829348
       4A    -11.480321     5A    -11.478222     6A    -11.472022
       7A    -11.453988     8A    -11.448781     9A    -11.411925
      10A    -11.408051    11A    -11.391664    12A    -11.382181
      13A    -11.360515    14A    -11.355848    15A     -1.764075
      16A     -1.541693    17A     -1.507661    18A     -1.323835
      19A     -1.275866    20A     -1.237776    21A     -1.171122
      22A     -1.161242    23A     -1.065109    24A     -1.063668
      25A     -0.992361    26A     -0.979895    27A     -0.960517
      28A     -0.901048    29A     -0.882804    30A     -0.864829
      31A     -0.834392    32A     -0.833078    33A     -0.819679
      34A     -0.806669    35A     -0.791985    36A     -0.772779
      37A     -0.769071    38A     -0.756329    39A     -0.730780
      40A     -0.720714    41A     -0.709307    42A     -0.687295
      43A     -0.675602    44A     -0.644878    45A     -0.638339
      46A     -0.574378    47A     -0.538004    48A     -0.479316
      49A     -0.446973

  @DF-RHF Final Energy:  -650.57017877101134

   => Energetics <=

    Nuclear Repulsion Energy =            831.3567724287941019
    One-Electron Energy =               -2522.7389257746431213
    Two-Electron Energy =                1040.8119745748376772
    DFT Exchange-Correlation Energy =       0.0000000000000000
    Empirical Dispersion Energy =           0.0000000000000000
    PCM Polarization Energy =               0.0000000000000000
    EFP Energy =                            0.0000000000000000
    Total Energy =                       -650.5701787710113422
  Basis Set: (AUG-CC-PVTZ AUX)
    Blend: AUG-CC-PVTZ-RI
    Molecular point group: c1
  Basis Set: AUG-CC-PVTZ
    Blend: AUG-CC-PVTZ
  Basis Set: (AUG-CC-PVTZ AUX)
    Blend: AUG-CC-PVTZ-JKFIT
  Basis Set: (AUG-CC-PVTZ AUX)
    Blend: AUG-CC-PVTZ-JKFIT
	 Reference Energy          =    -650.5701787710113422 [Eh]
	 Singles Energy            =      -0.0000000000000001 [Eh]
	 Same-Spin Energy          =      -0.6688127258726448 [Eh]
	 Opposite-Spin Energy      =      -2.0123516983975218 [Eh]
	 Correlation Energy        =      -2.6811644242701664 [Eh]
	 Total Energy              =    -653.2513431952814926 [Eh]

	 ================> DF-SCS-MP2 Energies <==================
	-----------------------------------------------------------
	 SCS Same-Spin Scale       =       0.3333333333333333 [-]
	 SCS Opposite-Spin Scale   =       1.2000000000000000 [-]
	 SCS Same-Spin Energy      =      -0.2229375752908816 [Eh]
	 SCS Opposite-Spin Energy  =      -2.4148220380770260 [Eh]
	 SCS Correlation Energy    =      -2.6377596133679075 [Eh]
	 SCS Total Energy          =    -653.2079383843793039 [Eh]
	-----------------------------------------------------------

  -Total Gradient:
     Atom            X                  Y                   Z
    ------   -----------------  -----------------  -----------------
       1        0.000001530711    -0.000014949399    -0.000006190840
       2        0.000014719312     0.000042576677     0.000019393753
       3       -0.000002182717     0.000005106182     0.000011597550
       4       -0.000025462777    -0.000001735752     0.000018466812
       5       -0.000002740002     0.000003071884     0.000017136280
       6        0.000021803987    -0.000015324389    -0.000004850489
       7        0.000014403603    -0.000008805374    -0.000019544339
       8       -0.000006420991     0.000032374796    -0.000011421149
       9        0.000030341827     0.000001479167    -0.000022884960
      10       -0.000042721264    -0.000085365551    -0.000030951258
      11       -0.000001429657    -0.000011480344    -0.000000092418
      12       -0.000019030352     0.000013589031     0.000007564288
      13        0.000048434512     0.000104996022     0.000022758461
      14       -0.000011275721     0.000009176824     0.000000060555
      15       -0.000001401155     0.000000937502     0.000013392482
      16        0.000006747311    -0.000001178544     0.000008550550
      17        0.000000360366    -0.000024572158     0.000001015258
      18        0.000014321938     0.000004040417    -0.000017628753
      19       -0.000004713985     0.000004557903    -0.000008877728
      20       -0.000006023382    -0.000002009369     0.000004763733
      21       -0.000002386002     0.000008185147     0.000000194722
      22       -0.000000903928     0.000002158457     0.000003780140
      23       -0.000025971647    -0.000066829117    -0.000006232644

  **** Optimization is complete! (in 16 steps) ****
    Final optimized geometry and variables:
    Molecular point group: c1

    Geometry (in Angstrom), charge = 1, multiplicity = 1:

    C           -1.147178029498     1.050971070124    -0.716531046957
    C           -2.228324857317     1.619440104858    -0.080351157963
    C            1.466599656995     0.269349882581    -1.811491661649
    C            1.384264806053    -1.648915331282    -0.389294050499
    C           -1.582015271423     0.532144722842     1.970561369790
    C            2.520116664293    -0.293138072339    -2.486221461687
    C            2.438489070986    -2.183938024178    -1.086579266142
    C           -0.261101889644     0.198503217555    -0.046489393359
    C            0.860586764268    -0.395341196022    -0.736600562768
    C           -2.448760995579     1.364901047764     1.272923374951
    C           -0.524729219309    -0.033189108081     1.305314048702
    N            2.976336241908    -1.498165330713    -2.107947922222
    O           -3.471490922549     1.883381356614     1.968850823563
    F            0.316828244364    -0.807963143864     2.010195143093
    H           -1.012937705714     1.232651122816    -1.771940589046
    H           -2.906849396162     2.252813004927    -0.631403059282
    H            1.136622235447     1.251067556923    -2.108262445472
    H            0.958596707596    -2.223396274255     0.414097630409
    H           -1.731756588172     0.339421752735     3.020174486865
    H            3.024472278236     0.184581973165    -3.309367835078
    H            2.868136199597    -3.146610638132    -0.865304121943
    H            3.756833862259    -1.902876972777    -2.608857346164
    H           -4.015620957789     2.443917268602     1.404156948936

*** Psi4 exiting successfully. Buy a developer a beer!
