                              Psi4 1.0.0 Driver

  ==> Input File <==

--------------------------------------------------------------------------

memory 1000 mb

molecule butane {
  symmetry C1
  0 1
  H      1.604   0.760   -8.260
  H      1.745   2.388   -8.880
  H      2.043   1.024   -9.930
  C      2.142   1.395   -8.932
  H      4.169   2.051   -9.210
  H      3.731   1.788   -7.539
  C      3.631   1.416   -8.537
  H      3.428   -0.718   -8.400
  H      4.589   -0.191   -9.593
  C      4.203   -0.012   -8.612
  H      5.732   -1.159   -7.632
  H      4.949   0.011   -6.598
  H      6.111   0.539   -7.791
  C      5.335   -0.167   -7.580
  units Angstrom
}

dih_string = "4 7 10 14 210"
set optking fixed_dihedral = $dih_string

optimize('MP2/6-31G(d)')
--------------------------------------------------------------------------

    Molecular point group: c1
  Charge       = 0
  Multiplicity = 1
  Basis Set: 6-31G(D)
  Basis Set:
  @DF-RHF Final Energy:  -157.29098515306708
    Total Energy =                       -157.2909851530672540
  Basis Set:
    Molecular point group: c1
  Basis Set: 6-31G(D)
  Basis Set:
  Basis Set:
	 Reference Energy          =    -157.2909851530670835 [Eh]
	 Singles Energy            =      -0.0000000000000000 [Eh]
	 Same-Spin Energy          =      -0.1243866664766649 [Eh]
	 Opposite-Spin Energy      =      -0.4202717941039690 [Eh]
	 Correlation Energy        =      -0.5446584605806338 [Eh]
	 Total Energy              =    -157.8356436136477043 [Eh]
	 SCS Total Energy          =    -157.8367735281507294 [Eh]
  Basis Set: 6-31G(D)
  Basis Set:
  @DF-RHF Final Energy:  -157.29391901411981
    Total Energy =                       -157.2939190141199219
  Basis Set:
  Basis Set: 6-31G(D)
  Basis Set:
  @DF-RHF Final Energy:  -157.29476206412031
    Total Energy =                       -157.2947620641202491
  @DF-RHF Final Energy:  -157.29507661158851
    Total Energy =                       -157.2950766115887404
  @DF-RHF Final Energy:  -157.29516025380781
    Total Energy =                       -157.2951602538078362
  @DF-RHF Final Energy:  -157.29518323840949
    Total Energy =                       -157.2951832384093791
  @DF-RHF Final Energy:  -157.29516641539328
    Total Energy =                       -157.2951664153930267
	 Singles Energy            =      -0.0000000000000000 [Eh]
	 Same-Spin Energy          =      -0.1243766498296357 [Eh]
	 Opposite-Spin Energy      =      -0.4223023202262216 [Eh]
	 Correlation Energy        =      -0.5466789700558573 [Eh]
	 Total Energy              =    -157.8418453854491474 [Eh]
	 SCS Total Energy          =    -157.8433880829412885 [Eh]
  Charge       = 0
  Multiplicity = 1
  Basis Set: 6-31G(D)
  Basis Set:

    Orbital Energies (a.u.)
    -----------------------

    Doubly Occupied:

       1A    -11.215637     2A    -11.215055     3A    -11.210398
       4A    -11.210393     5A     -1.069209     6A     -0.979661
       7A     -0.859299     8A     -0.786548     9A     -0.635319
      10A     -0.582606    11A     -0.582423    12A     -0.561053
      13A     -0.512078    14A     -0.498979    15A     -0.465678
      16A     -0.458289    17A     -0.455290

  @DF-RHF Final Energy:  -157.29517355772785

   => Energetics <=

    Nuclear Repulsion Energy =            130.7981904253853997
    One-Electron Energy =                -469.5908998119496687
    Two-Electron Energy =                 181.4975358288364760
    DFT Exchange-Correlation Energy =       0.0000000000000000
    Empirical Dispersion Energy =           0.0000000000000000
    PCM Polarization Energy =               0.0000000000000000
    EFP Energy =                            0.0000000000000000
    Total Energy =                       -157.2951735577278214
  Basis Set:
    Molecular point group: c1
  Basis Set: 6-31G(D)
  Basis Set:
  Basis Set:
	 Reference Energy          =    -157.2951735577278498 [Eh]
	 Singles Energy            =      -0.0000000000000000 [Eh]
	 Same-Spin Energy          =      -0.1243733955196361 [Eh]
	 Opposite-Spin Energy      =      -0.4222990012919294 [Eh]
	 Correlation Energy        =      -0.5466723968115654 [Eh]
	 Total Energy              =    -157.8418459545394228 [Eh]

	 ================> DF-SCS-MP2 Energies <==================
	-----------------------------------------------------------
	 SCS Same-Spin Scale       =       0.3333333333333333 [-]
	 SCS Opposite-Spin Scale   =       1.2000000000000000 [-]
	 SCS Same-Spin Energy      =      -0.0414577985065454 [Eh]
	 SCS Opposite-Spin Energy  =      -0.5067588015503153 [Eh]
	 SCS Correlation Energy    =      -0.5482166000568607 [Eh]
	 SCS Total Energy          =    -157.8433901577847109 [Eh]
	-----------------------------------------------------------

  -Total Gradient:
     Atom            X                  Y                   Z
    ------   -----------------  -----------------  -----------------
       1       -0.000003780069    -0.000001666917     0.000010314702
       2       -0.000006152285     0.000012011621    -0.000004166359
       3       -0.000009941932    -0.000008810020    -0.000012525572
       4       -0.000797121420    -0.000446981587     0.003079581893
       5       -0.000013118861     0.000002778992    -0.000000744859
       6        0.000008273618     0.000002470095    -0.000014333276
       7        0.000297417315     0.000253933549    -0.003400672223
       8        0.000007874266     0.000005398821    -0.000013889055
       9        0.000008577735    -0.000005161632     0.000009357500
      10        0.002619196148     0.001198711591    -0.001850410730
      11        0.000009360042    -0.000009909013    -0.000001517154
      12       -0.000006659587    -0.000003524106     0.000007676681
      13        0.000013233154     0.000010406784     0.000005536685
      14       -0.002127158122    -0.001009658178     0.002185791767

  **** Optimization is complete! (in 8 steps) ****
    Final optimized geometry and variables:
    Molecular point group: c1

    Geometry (in Angstrom), charge = 0, multiplicity = 1:

    H           -2.280178844624     0.135854792204     0.157239622316
    H           -2.111567982579     1.762943548427    -0.517292518728
    H           -1.836609903905     0.347245583441    -1.540013889374
    C           -1.696002846327     0.751393189925    -0.532667459524
    H            0.347956838602     1.424706467726    -0.778438300746
    H           -0.135126190371     1.141106585470     0.881319142640
    C           -0.223103624266     0.743570345081    -0.137515999911
    H           -0.378782966878    -1.397028258049     0.044089786876
    H            0.747313324033    -0.879280453926    -1.193826051477
    C            0.398944683931    -0.656004935502    -0.179121927288
    H            1.976989180566    -1.829960780138     0.759629834095
    H            1.168660752440    -0.689359733273     1.844282953559
    H            2.330732847364    -0.101187976664     0.650233856329
    C            1.534490786423    -0.831823179399     0.823503013677

*** Psi4 exiting successfully. Buy a developer a beer!
