                              Psi4 1.0.0 Driver

  ==> Input File <==

--------------------------------------------------------------------------

memory 1000 mb

molecule butane {
  symmetry C1
  0 1
  H      1.604   0.760   -8.260
  H      1.745   2.388   -8.880
  H      2.043   1.024   -9.930
  C      2.142   1.395   -8.932
  H      4.169   2.051   -9.210
  H      3.731   1.788   -7.539
  C      3.631   1.416   -8.537
  H      4.863   -0.175   -7.786
  H      3.402   -0.720   -8.574
  C      4.203   -0.012   -8.612
  H      5.376   -1.178   -9.982
  H      5.780   0.521   -9.970
  H      4.319   -0.023   -10.757
  C      4.978   -0.186   -9.930
  units Angstrom
}

dih_string = "4 7 10 14 100"
set optking fixed_dihedral = $dih_string

optimize('MP2/6-31G(d)')
--------------------------------------------------------------------------

    Molecular point group: c1
  Charge       = 0
  Multiplicity = 1
  Basis Set: 6-31G(D)
  Basis Set:
  @DF-RHF Final Energy:  -157.28924075780156
    Total Energy =                       -157.2892407578016787
  Basis Set:
    Molecular point group: c1
  Basis Set: 6-31G(D)
  Basis Set:
  Basis Set:
	 Reference Energy          =    -157.2892407578015650 [Eh]
	 Singles Energy            =      -0.0000000000000000 [Eh]
	 Same-Spin Energy          =      -0.1244853290180837 [Eh]
	 Opposite-Spin Energy      =      -0.4204233997677117 [Eh]
	 Correlation Energy        =      -0.5449087287857953 [Eh]
	 Total Energy              =    -157.8341494865873642 [Eh]
	 SCS Total Energy          =    -157.8352439471955222 [Eh]
  Basis Set: 6-31G(D)
  Basis Set:
  @DF-RHF Final Energy:  -157.29216158117697
    Total Energy =                       -157.2921615811767708
  Basis Set:
  Basis Set: 6-31G(D)
  Basis Set:
  @DF-RHF Final Energy:  -157.29302120646173
    Total Energy =                       -157.2930212064617308
  @DF-RHF Final Energy:  -157.29332415850189
    Total Energy =                       -157.2933241585019175
  @DF-RHF Final Energy:  -157.29338715070730
    Total Energy =                       -157.2933871507073036
  @DF-RHF Final Energy:  -157.29340054716704
    Total Energy =                       -157.2934005471668968
  @DF-RHF Final Energy:  -157.29338638281112
    Total Energy =                       -157.2933863828111498
	 Singles Energy            =      -0.0000000000000000 [Eh]
	 Same-Spin Energy          =      -0.1243652641569802 [Eh]
	 Opposite-Spin Energy      =      -0.4224234346564281 [Eh]
	 Correlation Energy        =      -0.5467886988134083 [Eh]
	 Total Energy              =    -157.8401750816245226 [Eh]
	 SCS Total Energy          =    -157.8417495924511513 [Eh]
  Charge       = 0
  Multiplicity = 1
  Basis Set: 6-31G(D)
  Basis Set:

    Orbital Energies (a.u.)
    -----------------------

    Doubly Occupied:

       1A    -11.215544     2A    -11.214974     3A    -11.210501
       4A    -11.210496     5A     -1.068697     6A     -0.977599
       7A     -0.863454     8A     -0.782830     9A     -0.624670
      10A     -0.609649    11A     -0.577258    12A     -0.542422
      13A     -0.515852    14A     -0.506293    15A     -0.467136
      16A     -0.454524    17A     -0.452708

  @DF-RHF Final Energy:  -157.29339203107321

   => Energetics <=

    Nuclear Repulsion Energy =            131.6563536625694724
    One-Electron Energy =                -471.3102796504954313
    Two-Electron Energy =                 182.3605339568528052
    DFT Exchange-Correlation Energy =       0.0000000000000000
    Empirical Dispersion Energy =           0.0000000000000000
    PCM Polarization Energy =               0.0000000000000000
    EFP Energy =                            0.0000000000000000
    Total Energy =                       -157.2933920310731537
  Basis Set:
    Molecular point group: c1
  Basis Set: 6-31G(D)
  Basis Set:
  Basis Set:
	 Reference Energy          =    -157.2933920310732105 [Eh]
	 Singles Energy            =      -0.0000000000000000 [Eh]
	 Same-Spin Energy          =      -0.1243627723021733 [Eh]
	 Opposite-Spin Energy      =      -0.4224205084104326 [Eh]
	 Correlation Energy        =      -0.5467832807126060 [Eh]
	 Total Energy              =    -157.8401753117858277 [Eh]

	 ================> DF-SCS-MP2 Energies <==================
	-----------------------------------------------------------
	 SCS Same-Spin Scale       =       0.3333333333333333 [-]
	 SCS Opposite-Spin Scale   =       1.2000000000000000 [-]
	 SCS Same-Spin Energy      =      -0.0414542574340578 [Eh]
	 SCS Opposite-Spin Energy  =      -0.5069046100925191 [Eh]
	 SCS Correlation Energy    =      -0.5483588675265768 [Eh]
	 SCS Total Energy          =    -157.8417508985997983 [Eh]
	-----------------------------------------------------------

  -Total Gradient:
     Atom            X                  Y                   Z
    ------   -----------------  -----------------  -----------------
       1        0.000004865826     0.000003011512     0.000004739305
       2       -0.000002163573     0.000005111171    -0.000000798174
       3       -0.000004597720    -0.000000515938    -0.000003006383
       4       -0.000647823738    -0.000512608824     0.002629184196
       5       -0.000016692635    -0.000006014603     0.000002080366
       6       -0.000002920493     0.000001089497    -0.000007694789
       7        0.001756330891     0.001109308439    -0.003147483406
       8       -0.000003069755    -0.000002826668    -0.000007268054
       9        0.000012911553     0.000004979288    -0.000011503343
      10       -0.003364074881    -0.001553387316    -0.000703001706
      11        0.000001210641    -0.000004813628    -0.000000909017
      12       -0.000000118060    -0.000001853311     0.000007306245
      13        0.000001117118    -0.000000435768    -0.000005137706
      14        0.002265024826     0.000958956150     0.001243492466

  **** Optimization is complete! (in 8 steps) ****
    Final optimized geometry and variables:
    Molecular point group: c1

    Geometry (in Angstrom), charge = 0, multiplicity = 1:

    H           -2.187977993557     0.086880665637     0.802204299676
    H           -2.063447998716     1.730610266692     0.160088475155
    H           -1.775394405518     0.343455206339    -0.896992069602
    C           -1.627219904346     0.728530111589     0.116834387121
    H            0.390863369436     1.455646377559    -0.148120892609
    H           -0.050063293745     1.118459900632     1.512546471624
    C           -0.147040075539     0.743080472908     0.487717619221
    H            1.189519366174    -0.803804169627     1.216634658262
    H           -0.262268071947    -1.420137488864     0.456125378664
    C            0.507031039921    -0.643671157663     0.374520915448
    H            1.710569343033    -1.828054409802    -1.005298158804
    H            2.116766984254    -0.106541032562    -0.972759224888
    H            0.651380356711    -0.653849381897    -1.795205802859
    C            1.290749253502    -0.821444492881    -0.922737445468

*** Psi4 exiting successfully. Buy a developer a beer!
