                               Psi4 1.1 release

  ==> Input File <==

--------------------------------------------------------------------------

memory 5 Gb

molecule phepyrFOH_cation {
  symmetry C1
  1 1
  C      1.885   -1.036   -0.112
  C      0.807   -0.463   0.561
  C      4.516   -3.474   0.287
  C      4.635   -1.547   -1.153
  C      1.800   -1.079   2.676
  C      5.589   -4.019   -0.405
  C      5.704   -2.141   -1.809
  C      2.921   -1.631   0.608
  C      4.038   -2.225   -0.095
  C      0.764   -0.484   1.955
  C      2.878   -1.652   2.002
  N      6.145   -3.345   -1.420
  O      -0.289   0.076   2.612
  F      3.866   -2.220   2.709
  H      1.904   -1.012   -1.199
  H      0.002   -0.002   -0.006
  H      4.070   -4.026   1.109
  H      4.283   -0.571   -1.473
  H      1.772   -1.099   3.762
  H      6.025   -4.982   -0.178
  H      6.228   -1.689   -2.640
  H      6.933   -3.763   -1.914
  H      -0.175   -0.018   3.571
  units Angstrom
}

dih_string = "1 8 9 3 225"
set optking fixed_dihedral = $dih_string

optimize('MP2/aug-cc-PVTZ')
--------------------------------------------------------------------------

    Molecular point group: c1
  Charge       = 1
  Multiplicity = 1
  Basis Set: AUG-CC-PVTZ
    Blend: AUG-CC-PVTZ
  Basis Set: (AUG-CC-PVTZ AUX)
    Blend: AUG-CC-PVTZ-JKFIT
  @DF-RHF Final Energy:  -650.56159670939360
    Total Energy =                       -650.5615967093935978
  Basis Set: (AUG-CC-PVTZ AUX)
    Blend: AUG-CC-PVTZ-RI
    Molecular point group: c1
  Basis Set: AUG-CC-PVTZ
    Blend: AUG-CC-PVTZ
  Basis Set: (AUG-CC-PVTZ AUX)
    Blend: AUG-CC-PVTZ-JKFIT
  Basis Set: (AUG-CC-PVTZ AUX)
    Blend: AUG-CC-PVTZ-JKFIT
	 Reference Energy          =    -650.5615967093935978 [Eh]
	 Singles Energy            =      -0.0000000000000002 [Eh]
	 Same-Spin Energy          =      -0.6695564297423742 [Eh]
	 Opposite-Spin Energy      =      -2.0146212957515588 [Eh]
	 Correlation Energy        =      -2.6841777254939334 [Eh]
	 Total Energy              =    -653.2457744348874940 [Eh]
	 SCS Total Energy          =    -653.2023277408762851 [Eh]
  @DF-RHF Final Energy:  -650.56743690008261
    Total Energy =                       -650.5674369000826118
  @DF-RHF Final Energy:  -650.56916248180596
    Total Energy =                       -650.5691624818059609
  @DF-RHF Final Energy:  -650.56925416811032
    Total Energy =                       -650.5692541681103194
  @DF-RHF Final Energy:  -650.56922227309792
    Total Energy =                       -650.5692222730979211
  @DF-RHF Final Energy:  -650.56927123239143
    Total Energy =                       -650.5692712323914293
  @DF-RHF Final Energy:  -650.56926590883859
    Total Energy =                       -650.5692659088385881
  @DF-RHF Final Energy:  -650.56927563020565
    Total Energy =                       -650.5692756302057660
  @DF-RHF Final Energy:  -650.56926774953649
    Total Energy =                       -650.5692677495364933
  @DF-RHF Final Energy:  -650.56926048373134
    Total Energy =                       -650.5692604837313411
  @DF-RHF Final Energy:  -650.56925046793503
    Total Energy =                       -650.5692504679350350
  Charge       = 1
  Multiplicity = 1
  Basis Set: AUG-CC-PVTZ
    Blend: AUG-CC-PVTZ
  Basis Set: (AUG-CC-PVTZ AUX)
    Blend: AUG-CC-PVTZ-JKFIT

    Orbital Energies (a.u.)
    -----------------------

    Doubly Occupied:

       1A    -26.444350     2A    -20.714787     3A    -15.833007
       4A    -11.482863     5A    -11.480814     6A    -11.471598
       7A    -11.453698     8A    -11.445453     9A    -11.413603
      10A    -11.411708    11A    -11.385978    12A    -11.379229
      13A    -11.361384    14A    -11.351676    15A     -1.763861
      16A     -1.538297    17A     -1.510470    18A     -1.323964
      19A     -1.275589    20A     -1.240337    21A     -1.169535
      22A     -1.159495    23A     -1.066450    24A     -1.063924
      25A     -0.997315    26A     -0.971547    27A     -0.961437
      28A     -0.898919    29A     -0.872038    30A     -0.862557
      31A     -0.857711    32A     -0.831721    33A     -0.818064
      34A     -0.807789    35A     -0.794658    36A     -0.774845
      37A     -0.764857    38A     -0.751593    39A     -0.731641
      40A     -0.718232    41A     -0.708804    42A     -0.691962
      43A     -0.666036    44A     -0.647104    45A     -0.632172
      46A     -0.574780    47A     -0.539644    48A     -0.478455
      49A     -0.445699

  @DF-RHF Final Energy:  -650.56927929364144

   => Energetics <=

    Nuclear Repulsion Energy =            831.5588913133564120
    One-Electron Energy =               -2523.1730422350010485
    Two-Electron Energy =                1041.0448716280031931
    DFT Exchange-Correlation Energy =       0.0000000000000000
    Empirical Dispersion Energy =           0.0000000000000000
    PCM Polarization Energy =               0.0000000000000000
    EFP Energy =                            0.0000000000000000
    Total Energy =                       -650.5692792936413298
  Basis Set: (AUG-CC-PVTZ AUX)
    Blend: AUG-CC-PVTZ-RI
    Molecular point group: c1
  Basis Set: AUG-CC-PVTZ
    Blend: AUG-CC-PVTZ
  Basis Set: (AUG-CC-PVTZ AUX)
    Blend: AUG-CC-PVTZ-JKFIT
  Basis Set: (AUG-CC-PVTZ AUX)
    Blend: AUG-CC-PVTZ-JKFIT
	 Reference Energy          =    -650.5692792936414435 [Eh]
	 Singles Energy            =      -0.0000000000000002 [Eh]
	 Same-Spin Energy          =      -0.6686949565153155 [Eh]
	 Opposite-Spin Energy      =      -2.0122567938434126 [Eh]
	 Correlation Energy        =      -2.6809517503587283 [Eh]
	 Total Energy              =    -653.2502310440002020 [Eh]

	 ================> DF-SCS-MP2 Energies <==================
	-----------------------------------------------------------
	 SCS Same-Spin Scale       =       0.3333333333333333 [-]
	 SCS Opposite-Spin Scale   =       1.2000000000000000 [-]
	 SCS Same-Spin Energy      =      -0.2228983188384385 [Eh]
	 SCS Opposite-Spin Energy  =      -2.4147081526120950 [Eh]
	 SCS Correlation Energy    =      -2.6376064714505336 [Eh]
	 SCS Total Energy          =    -653.2068857650920108 [Eh]
	-----------------------------------------------------------

  -Total Gradient:
     Atom            X                  Y                   Z
    ------   -----------------  -----------------  -----------------
       1       -0.001688976217    -0.002937190945    -0.000129155632
       2        0.000017298004    -0.000019467155     0.000046991562
       3       -0.002185213034    -0.001517102353    -0.002164402271
       4       -0.000001397104    -0.000012220647     0.000025399116
       5        0.000002196904     0.000007617468    -0.000019415471
       6       -0.000003527799     0.000059436293    -0.000034277949
       7       -0.000028493085     0.000012183342     0.000016876651
       8        0.001430729132     0.003641581246    -0.000839042664
       9        0.002456901486     0.000791911595     0.003167193288
      10       -0.000031933234    -0.000020613470    -0.000035406667
      11        0.000001568244     0.000001551114    -0.000050994833
      12        0.000015636476    -0.000041637665     0.000010431890
      13        0.000010158296     0.000006393235     0.000030068408
      14       -0.000011754585     0.000014752729     0.000003926025
      15       -0.000009711680     0.000016948988     0.000007274517
      16        0.000002456668     0.000001571882    -0.000014474608
      17        0.000028010391    -0.000002550719    -0.000016547500
      18        0.000018392707     0.000003133265    -0.000009229525
      19        0.000005440389    -0.000002250487    -0.000002451584
      20       -0.000005002342    -0.000005897841     0.000006078841
      21       -0.000010400407    -0.000004402851     0.000011256111
      22       -0.000017604914     0.000005537431     0.000013039694
      23        0.000005225702     0.000000715550    -0.000023137389

  **** Optimization is complete! (in 12 steps) ****
    Final optimized geometry and variables:
    Molecular point group: c1

    Geometry (in Angstrom), charge = 1, multiplicity = 1:

    C           -1.291679667329     0.829877488953    -0.749505688777
    C           -2.385885837565     1.359964346248    -0.105259480508
    C            1.361070836269    -1.650745581113    -0.364260313983
    C            1.428820723487     0.224763983286    -1.847703328545
    C           -1.453244051600     0.695251881703     2.017794292145
    C            2.383563218029    -2.226119178731    -1.077292046936
    C            2.449137830828    -0.378662844533    -2.540312824694
    C           -0.252153947098     0.216841274676    -0.039184006405
    C            0.861154476629    -0.395339970749    -0.729341974195
    C           -2.467668295077     1.302453201457     1.285364974046
    C           -0.383943781419     0.155020207775     1.344230703693
    N            2.896447949709    -1.578297455385    -2.136202214737
    O           -3.555102406694     1.849421487276     1.851713998780
    F            0.595990520585    -0.421670091840     2.061620727112
    H           -1.249626075415     0.857840077280    -1.828256898529
    H           -3.192270438122     1.815259662744    -0.656899728516
    H            0.947116578446    -2.185522106371     0.473502912266
    H            1.088927915938     1.197447265081    -2.164866335577
    H           -1.480467322280     0.639669212565     3.095086574364
    H            2.803064126376    -3.190800320458    -0.845729366503
    H            2.931585408431     0.059194746548    -3.398117481054
    H            3.651202440757    -2.013155682655    -2.651480899666
    H           -3.523536687279     1.759444560353     2.810710588208

*** Psi4 exiting successfully. Buy a developer a beer!
