                               Psi4 1.1 release

  ==> Input File <==

--------------------------------------------------------------------------

memory 5 Gb

molecule phepyrOH_anion {
  symmetry C1
  -1 1
  C      1.885   -1.036   -0.112
  C      2.878   -1.652   2.002
  C      0.807   -0.463   0.561
  C      1.800   -1.079   2.676
  C      5.330   -1.755   0.128
  C      3.829   -3.272   -0.981
  C      6.367   -2.359   -0.564
  C      4.934   -3.808   -1.624
  C      2.921   -1.631   0.608
  C      4.040   -2.226   -0.090
  C      0.764   -0.484   1.955
  N      6.202   -3.377   -1.437
  O      -0.227   0.042   2.574
  H      1.904   -1.011   -1.199
  H      3.678   -2.112   2.577
  H      0.011   -0.006   -0.025
  H      1.791   -1.108   3.764
  H      5.533   -0.941   0.817
  H      2.837   -3.666   -1.177
  H      7.392   -2.029   -0.427
  H      4.823   -4.625   -2.329
  units Angstrom
}

dih_string = "1 9 10 5 120"
set optking fixed_dihedral = $dih_string

optimize('MP2/aug-cc-PVTZ')
--------------------------------------------------------------------------

    Molecular point group: c1
  Charge       = -1
  Multiplicity = 1
  Basis Set: AUG-CC-PVTZ
    Blend: AUG-CC-PVTZ
  Basis Set: (AUG-CC-PVTZ AUX)
    Blend: AUG-CC-PVTZ-JKFIT
  @DF-RHF Final Energy:  -550.71177090936010
    Total Energy =                       -550.7117709093600979
  Basis Set: (AUG-CC-PVTZ AUX)
    Blend: AUG-CC-PVTZ-RI
    Molecular point group: c1
  Basis Set: AUG-CC-PVTZ
    Blend: AUG-CC-PVTZ
  Basis Set: (AUG-CC-PVTZ AUX)
    Blend: AUG-CC-PVTZ-JKFIT
  Basis Set: (AUG-CC-PVTZ AUX)
    Blend: AUG-CC-PVTZ-JKFIT
	 Reference Energy          =    -550.7117709093600979 [Eh]
	 Singles Energy            =      -0.0000000000000001 [Eh]
	 Same-Spin Energy          =      -0.6134548682486949 [Eh]
	 Opposite-Spin Energy      =      -1.8375315633663474 [Eh]
	 Correlation Energy        =      -2.4509864316150423 [Eh]
	 Total Energy              =    -553.1627573409751903 [Eh]
	 SCS Total Energy          =    -553.1212937414826456 [Eh]
  @DF-RHF Final Energy:  -550.71821812638382
    Total Energy =                       -550.7182181263838174
  @DF-RHF Final Energy:  -550.72213849412401
    Total Energy =                       -550.7221384941240103
  @DF-RHF Final Energy:  -550.72357506782919
    Total Energy =                       -550.7235750678291879
  @DF-RHF Final Energy:  -550.72395182557830
    Total Energy =                       -550.7239518255782968
  @DF-RHF Final Energy:  -550.72414814995727
    Total Energy =                       -550.7241481499572728
  @DF-RHF Final Energy:  -550.72426668917899
    Total Energy =                       -550.7242666891789895
  @DF-RHF Final Energy:  -550.72429687031990
    Total Energy =                       -550.7242968703199040
  @DF-RHF Final Energy:  -550.72427681596639
    Total Energy =                       -550.7242768159663910
  @DF-RHF Final Energy:  -550.72425030909835
    Total Energy =                       -550.7242503090983519
  @DF-RHF Final Energy:  -550.72423836730638
    Total Energy =                       -550.7242383673063841
  @DF-RHF Final Energy:  -550.72423547499977
    Total Energy =                       -550.7242354749997730
  @DF-RHF Final Energy:  -550.72422815389803
    Total Energy =                       -550.7242281538980251
  @DF-RHF Final Energy:  -550.72422408118530
    Total Energy =                       -550.7242240811852980
  @DF-RHF Final Energy:  -550.72419577349751
    Total Energy =                       -550.7241957734975131
  @DF-RHF Final Energy:  -550.72416764338504
    Total Energy =                       -550.7241676433850444
  @DF-RHF Final Energy:  -550.72416700226927
    Total Energy =                       -550.7241670022692688
  @DF-RHF Final Energy:  -550.72416676131888
    Total Energy =                       -550.7241667613188838
  @DF-RHF Final Energy:  -550.72401889849527
    Total Energy =                       -550.7240188984952738
  @DF-RHF Final Energy:  -550.72413372743733
    Total Energy =                       -550.7241337274373336
  Charge       = -1
  Multiplicity = 1
  Basis Set: AUG-CC-PVTZ
    Blend: AUG-CC-PVTZ
  Basis Set: (AUG-CC-PVTZ AUX)
    Blend: AUG-CC-PVTZ-JKFIT

    Orbital Energies (a.u.)
    -----------------------

    Doubly Occupied:

       1A    -20.311681     2A    -15.453440     3A    -11.166540
       4A    -11.166381     5A    -11.146652     6A    -11.127164
       7A    -11.120684     8A    -11.120290     9A    -11.098061
      10A    -11.097095    11A    -11.074287    12A    -11.058928
      13A    -11.058393    14A     -1.149000    15A     -1.142364
      16A     -1.016464    17A     -0.957949    18A     -0.923314
      19A     -0.863876    20A     -0.836741    21A     -0.746544
      22A     -0.735265    23A     -0.673818    24A     -0.649105
      25A     -0.595514    26A     -0.554302    27A     -0.540641
      28A     -0.511643    29A     -0.488158    30A     -0.484281
      31A     -0.480371    32A     -0.434347    33A     -0.432243
      34A     -0.417213    35A     -0.404668    36A     -0.374909
      37A     -0.369949    38A     -0.347709    39A     -0.312891
      40A     -0.304852    41A     -0.253849    42A     -0.241804
      43A     -0.219506    44A     -0.198154    45A     -0.107149

  @DF-RHF Final Energy:  -550.72416967634661

   => Energetics <=

    Nuclear Repulsion Energy =            682.3933229107030911
    One-Electron Energy =               -2114.6986054598551164
    Two-Electron Energy =                 881.5811128728054200
    DFT Exchange-Correlation Energy =       0.0000000000000000
    Empirical Dispersion Energy =           0.0000000000000000
    PCM Polarization Energy =               0.0000000000000000
    EFP Energy =                            0.0000000000000000
    Total Energy =                       -550.7241696763466052
  Basis Set: (AUG-CC-PVTZ AUX)
    Blend: AUG-CC-PVTZ-RI
    Molecular point group: c1
  Basis Set: AUG-CC-PVTZ
    Blend: AUG-CC-PVTZ
  Basis Set: (AUG-CC-PVTZ AUX)
    Blend: AUG-CC-PVTZ-JKFIT
  Basis Set: (AUG-CC-PVTZ AUX)
    Blend: AUG-CC-PVTZ-JKFIT
	 Reference Energy          =    -550.7241696763466052 [Eh]
	 Singles Energy            =      -0.0000000000000007 [Eh]
	 Same-Spin Energy          =      -0.6125070797215924 [Eh]
	 Opposite-Spin Energy      =      -1.8363338032445684 [Eh]
	 Correlation Energy        =      -2.4488408829661616 [Eh]
	 Total Energy              =    -553.1730105593127291 [Eh]

	 ================> DF-SCS-MP2 Energies <==================
	-----------------------------------------------------------
	 SCS Same-Spin Scale       =       0.3333333333333333 [-]
	 SCS Opposite-Spin Scale   =       1.2000000000000000 [-]
	 SCS Same-Spin Energy      =      -0.2041690265738641 [Eh]
	 SCS Opposite-Spin Energy  =      -2.2036005638934819 [Eh]
	 SCS Correlation Energy    =      -2.4077695904673471 [Eh]
	 SCS Total Energy          =    -553.1319392668139017 [Eh]
	-----------------------------------------------------------

  -Total Gradient:
     Atom            X                  Y                   Z
    ------   -----------------  -----------------  -----------------
       1        0.003435617544     0.006463272147     0.000282746359
       2       -0.000018052863     0.000081976709     0.000172074307
       3        0.000115005610    -0.000047445931    -0.000086092821
       4        0.000109634859    -0.000041785429    -0.000075722493
       5       -0.000877352663     0.005060690084    -0.005339837798
       6        0.000006966364    -0.000069986212    -0.000152410285
       7       -0.000092465048    -0.000017346020     0.000062634626
       8       -0.000021454733    -0.000037761957     0.000150814632
       9       -0.005494718225    -0.006761263942    -0.003306676149
      10        0.003001967593    -0.004540306105     0.008328629898
      11       -0.000093431579    -0.000157510955     0.000023825366
      12       -0.000087638113     0.000042967481     0.000013977020
      13        0.000117730605     0.000034294207    -0.000050032653
      14       -0.000016421259    -0.000018333476     0.000119046612
      15       -0.000123646023     0.000061751531    -0.000058122133
      16       -0.000043658686    -0.000038713492     0.000011439535
      17       -0.000032048529    -0.000020206345     0.000046002757
      18       -0.000023292105    -0.000096152512    -0.000069547900
      19        0.000153557097     0.000060164425     0.000010136018
      20       -0.000014236188     0.000015699859    -0.000020007700
      21       -0.000002063658     0.000025995938    -0.000062877194

  **** Optimization is complete! (in 21 steps) ****
    Final optimized geometry and variables:
    Molecular point group: c1

    Geometry (in Angstrom), charge = -1, multiplicity = 1:

    C           -1.353750778975     0.592759840706    -0.463510136386
    C           -0.232219370681     0.141904770995     1.596262901731
    C           -2.339612820371     1.275578907495     0.217169521699
    C           -1.224285349761     0.802274068655     2.289466599436
    C            2.139625111740    -0.166424188673    -0.355161653908
    C            0.629238881756    -1.515702382512    -1.567370374711
    C            3.156986244711    -0.686586777361    -1.136636458094
    C            1.704792958453    -1.969953204892    -2.311081795304
    C           -0.285495325547    -0.021326787293     0.204963280925
    C            0.820796634112    -0.596915244588    -0.530873036895
    C           -2.352169559821     1.413440463555     1.645493231129
    N            2.970411201456    -1.581574838148    -2.114667456721
    O           -3.262582616295     2.025187664295     2.275806992048
    H           -1.390970776777     0.541761038246    -1.545662359347
    H            0.597366962603    -0.293899474250     2.141298497155
    H           -3.144150680917     1.750895212836    -0.328149454106
    H           -1.174784300884     0.879207611708     3.367649361467
    H            2.358455508250     0.580054361517     0.393952816086
    H           -0.365884499473    -1.880590750703    -1.775292967133
    H            4.175692434181    -0.351248274557    -0.988583914065
    H            1.546872944311    -2.689120039255    -3.104974372250

*** Psi4 exiting successfully. Buy a developer a beer!
