                               Psi4 1.1 release

  ==> Input File <==

--------------------------------------------------------------------------

memory 5000 mb

molecule butane {
  symmetry C1
  0 1
  H      1.921   2.251   -9.534
  H      1.933   0.504   -9.488
  H      1.539   1.413   -8.049
  C      2.142   1.395   -8.932
  H      4.169   2.051   -9.210
  H      3.731   1.788   -7.539
  C      3.631   1.416   -8.537
  H      3.665   -0.647   -7.940
  H      4.104   -0.384   -9.610
  C      4.203   -0.012   -8.612
  H      6.088   -0.983   -8.270
  H      5.791   0.381   -7.220
  H      6.230   0.644   -8.890
  C      5.691   0.009   -8.218
  units Angstrom
}

dih_string = "10 7 4 3 100"
set optking fixed_dihedral = $dih_string

optimize('MP2/aug-cc-pvtz')
--------------------------------------------------------------------------

    Molecular point group: c1
  Charge       = 0
  Multiplicity = 1
  Basis Set: AUG-CC-PVTZ
    Blend: AUG-CC-PVTZ
  Basis Set: (AUG-CC-PVTZ AUX)
    Blend: AUG-CC-PVTZ-JKFIT
  @DF-RHF Final Energy:  -157.34860170606203
    Total Energy =                       -157.3486017060620270
  Basis Set: (AUG-CC-PVTZ AUX)
    Blend: AUG-CC-PVTZ-RI
    Molecular point group: c1
  Basis Set: AUG-CC-PVTZ
    Blend: AUG-CC-PVTZ
  Basis Set: (AUG-CC-PVTZ AUX)
    Blend: AUG-CC-PVTZ-JKFIT
  Basis Set: (AUG-CC-PVTZ AUX)
    Blend: AUG-CC-PVTZ-JKFIT
	 Reference Energy          =    -157.3486017060620270 [Eh]
	 Singles Energy            =      -0.0000000000000000 [Eh]
	 Same-Spin Energy          =      -0.1654623590885330 [Eh]
	 Opposite-Spin Energy      =      -0.6393254588420521 [Eh]
	 Correlation Energy        =      -0.8047878179305850 [Eh]
	 Total Energy              =    -158.1533895239926153 [Eh]
	 SCS Total Energy          =    -158.1709463763686756 [Eh]
  @DF-RHF Final Energy:  -157.35144372074549
    Total Energy =                       -157.3514437207454932
  @DF-RHF Final Energy:  -157.35233542889688
    Total Energy =                       -157.3523354288968790
  @DF-RHF Final Energy:  -157.35265163978340
    Total Energy =                       -157.3526516397834030
  @DF-RHF Final Energy:  -157.35266440985120
    Total Energy =                       -157.3526644098512008
  Charge       = 0
  Multiplicity = 1
  Basis Set: AUG-CC-PVTZ
    Blend: AUG-CC-PVTZ
  Basis Set: (AUG-CC-PVTZ AUX)
    Blend: AUG-CC-PVTZ-JKFIT

    Orbital Energies (a.u.)
    -----------------------

    Doubly Occupied:

       1A    -11.211566     2A    -11.210830     3A    -11.205887
       4A    -11.205620     5A     -1.073025     6A     -0.980811
       7A     -0.861834     8A     -0.788524     9A     -0.639244
      10A     -0.584380    11A     -0.577909    12A     -0.568692
      13A     -0.512686    14A     -0.496097    15A     -0.470487
      16A     -0.458733    17A     -0.454850

  @DF-RHF Final Energy:  -157.35267182454186

   => Energetics <=

    Nuclear Repulsion Energy =            131.3360837839756243
    One-Electron Energy =                -470.7751595440077494
    Two-Electron Energy =                 182.0864039354902388
    DFT Exchange-Correlation Energy =       0.0000000000000000
    Empirical Dispersion Energy =           0.0000000000000000
    PCM Polarization Energy =               0.0000000000000000
    EFP Energy =                            0.0000000000000000
    Total Energy =                       -157.3526718245418579
  Basis Set: (AUG-CC-PVTZ AUX)
    Blend: AUG-CC-PVTZ-RI
    Molecular point group: c1
  Basis Set: AUG-CC-PVTZ
    Blend: AUG-CC-PVTZ
  Basis Set: (AUG-CC-PVTZ AUX)
    Blend: AUG-CC-PVTZ-JKFIT
  Basis Set: (AUG-CC-PVTZ AUX)
    Blend: AUG-CC-PVTZ-JKFIT
	 Reference Energy          =    -157.3526718245418579 [Eh]
	 Singles Energy            =      -0.0000000000000000 [Eh]
	 Same-Spin Energy          =      -0.1654397711532925 [Eh]
	 Opposite-Spin Energy      =      -0.6397082898813828 [Eh]
	 Correlation Energy        =      -0.8051480610346754 [Eh]
	 Total Energy              =    -158.1578198855765436 [Eh]

	 ================> DF-SCS-MP2 Energies <==================
	-----------------------------------------------------------
	 SCS Same-Spin Scale       =       0.3333333333333333 [-]
	 SCS Opposite-Spin Scale   =       1.2000000000000000 [-]
	 SCS Same-Spin Energy      =      -0.0551465903844308 [Eh]
	 SCS Opposite-Spin Energy  =      -0.7676499478576594 [Eh]
	 SCS Correlation Energy    =      -0.8227965382420902 [Eh]
	 SCS Total Energy          =    -158.1754683627839597 [Eh]
	-----------------------------------------------------------

  -Total Gradient:
     Atom            X                  Y                   Z
    ------   -----------------  -----------------  -----------------
       1       -0.000001196518    -0.000025845475    -0.000002404550
       2       -0.000014999542    -0.000012806134    -0.000005789032
       3        0.000030842525     0.003122858929    -0.000075271959
       4        0.000203157553    -0.003775555799    -0.000765624261
       5       -0.000014541906     0.000005168356     0.000026144256
       6        0.000019067137     0.000001394363     0.000015123271
       7       -0.000772010648     0.000362101119     0.002981880921
       8       -0.000015728065     0.000007839339    -0.000003048940
       9       -0.000000025583    -0.000012740814     0.000018060223
      10        0.000560717993     0.000331445330    -0.002156276740
      11        0.000011539009     0.000002521296    -0.000001962895
      12       -0.000007579875     0.000000017870    -0.000000019649
      13        0.000011497189     0.000000619632     0.000009501196
      14       -0.000010739270    -0.000007018016    -0.000040311840

  **** Optimization is complete! (in 6 steps) ****
    Final optimized geometry and variables:
    Molecular point group: c1

    Geometry (in Angstrom), charge = 0, multiplicity = 1:

    H           -2.049097645860     1.564042193896    -0.945979582852
    H           -2.044377409624    -0.191199935944    -0.935071592399
    H           -2.420029606452     0.715129542497     0.530827446806
    C           -1.787312233746     0.690975016492    -0.352800373388
    H            0.248017671867     1.334878965070    -0.665434376011
    H           -0.164854269320     1.113715986781     1.014161933340
    C           -0.305388173438     0.691291347971     0.019264281196
    H           -0.246665709849    -1.363043142283     0.620712360672
    H            0.207614487033    -1.085123482143    -1.044310820648
    C            0.315115395865    -0.692655828520    -0.032306185717
    H            2.210816256642    -1.688205810830     0.309191664293
    H            1.898761536166    -0.332142264446     1.387127368774
    H            2.353776210352    -0.037548058163    -0.285137412836
    C            1.778092155514    -0.692172426707     0.367010767960

*** Psi4 exiting successfully. Buy a developer a beer!
