                               Psi4 1.1 release

  ==> Input File <==

--------------------------------------------------------------------------

memory 5 Gb

molecule phepyrFOH_neutral {
  symmetry C1
  0 1
  C      1.885   -1.036   -0.112
  C      0.807   -0.463   0.561
  C      3.996   -3.564   -0.468
  C      5.156   -1.458   -0.401
  C      1.800   -1.079   2.676
  C      5.090   -4.084   -1.140
  C      6.199   -2.073   -1.077
  C      2.921   -1.631   0.608
  C      4.038   -2.225   -0.095
  C      0.764   -0.484   1.955
  C      2.878   -1.652   2.002
  N      6.194   -3.371   -1.455
  O      -0.289   0.076   2.612
  F      3.866   -2.220   2.709
  H      1.904   -1.012   -1.199
  H      0.002   -0.002   -0.006
  H      3.140   -4.193   -0.247
  H      5.225   -0.411   -0.126
  H      1.772   -1.099   3.762
  H      5.106   -5.123   -1.454
  H      7.094   -1.519   -1.338
  H      -0.175   -0.018   3.571
  units Angstrom
}

dih_string = "1 8 9 3 270"
set optking fixed_dihedral = $dih_string

optimize('MP2/aug-cc-PVTZ')
--------------------------------------------------------------------------

    Molecular point group: c1
  Charge       = 0
  Multiplicity = 1
  Basis Set: AUG-CC-PVTZ
    Blend: AUG-CC-PVTZ
  Basis Set: (AUG-CC-PVTZ AUX)
    Blend: AUG-CC-PVTZ-JKFIT
  @DF-RHF Final Energy:  -650.17220295469258
    Total Energy =                       -650.1722029546924659
  Basis Set: (AUG-CC-PVTZ AUX)
    Blend: AUG-CC-PVTZ-RI
    Molecular point group: c1
  Basis Set: AUG-CC-PVTZ
    Blend: AUG-CC-PVTZ
  Basis Set: (AUG-CC-PVTZ AUX)
    Blend: AUG-CC-PVTZ-JKFIT
  Basis Set: (AUG-CC-PVTZ AUX)
    Blend: AUG-CC-PVTZ-JKFIT
	 Reference Energy          =    -650.1722029546925796 [Eh]
	 Singles Energy            =      -0.0000000000000001 [Eh]
	 Same-Spin Energy          =      -0.6771069110656723 [Eh]
	 Opposite-Spin Energy      =      -2.0193823500703600 [Eh]
	 Correlation Energy        =      -2.6964892611360325 [Eh]
	 Total Energy              =    -652.8686922158285597 [Eh]
	 SCS Total Energy          =    -652.8211640784655856 [Eh]
  @DF-RHF Final Energy:  -650.17862930145111
    Total Energy =                       -650.1786293014511102
  @DF-RHF Final Energy:  -650.18035905296585
    Total Energy =                       -650.1803590529657413
  @DF-RHF Final Energy:  -650.18023678851023
    Total Energy =                       -650.1802367885102285
  @DF-RHF Final Energy:  -650.18015148417453
    Total Energy =                       -650.1801514841745302
  Charge       = 0
  Multiplicity = 1
  Basis Set: AUG-CC-PVTZ
    Blend: AUG-CC-PVTZ
  Basis Set: (AUG-CC-PVTZ AUX)
    Blend: AUG-CC-PVTZ-JKFIT

    Orbital Energies (a.u.)
    -----------------------

    Doubly Occupied:

       1A    -26.320305     2A    -20.609004     3A    -15.564573
       4A    -11.344327     5A    -11.324817     6A    -11.273208
       7A    -11.273190     8A    -11.267362     9A    -11.261636
      10A    -11.252129    11A    -11.249949    12A    -11.240001
      13A    -11.239022    14A    -11.238983    15A     -1.638696
      16A     -1.426720    17A     -1.260659    18A     -1.184025
      19A     -1.111767    20A     -1.042360    21A     -1.035801
      22A     -1.023896    23A     -0.891789    24A     -0.873005
      25A     -0.860659    26A     -0.827120    27A     -0.772900
      28A     -0.745122    29A     -0.726961    30A     -0.706285
      31A     -0.692242    32A     -0.669714    33A     -0.660299
      34A     -0.643995    35A     -0.636207    36A     -0.616676
      37A     -0.609859    38A     -0.598415    39A     -0.580497
      40A     -0.546231    41A     -0.540553    42A     -0.529928
      43A     -0.526896    44A     -0.494936    45A     -0.419080
      46A     -0.381595    47A     -0.361804    48A     -0.348263
      49A     -0.334180

  @DF-RHF Final Energy:  -650.18015932447997

   => Energetics <=

    Nuclear Repulsion Energy =            813.2688904760226478
    One-Electron Energy =               -2501.3428193542022200
    Two-Electron Energy =                1037.8937695536997126
    DFT Exchange-Correlation Energy =       0.0000000000000000
    Empirical Dispersion Energy =           0.0000000000000000
    PCM Polarization Energy =               0.0000000000000000
    EFP Energy =                            0.0000000000000000
    Total Energy =                       -650.1801593244799733
  Basis Set: (AUG-CC-PVTZ AUX)
    Blend: AUG-CC-PVTZ-RI
    Molecular point group: c1
  Basis Set: AUG-CC-PVTZ
    Blend: AUG-CC-PVTZ
  Basis Set: (AUG-CC-PVTZ AUX)
    Blend: AUG-CC-PVTZ-JKFIT
  Basis Set: (AUG-CC-PVTZ AUX)
    Blend: AUG-CC-PVTZ-JKFIT
	 Reference Energy          =    -650.1801593244799733 [Eh]
	 Singles Energy            =      -0.0000000000000002 [Eh]
	 Same-Spin Energy          =      -0.6760041098688797 [Eh]
	 Opposite-Spin Energy      =      -2.0165102827543842 [Eh]
	 Correlation Energy        =      -2.6925143926232642 [Eh]
	 Total Energy              =    -652.8726737171032255 [Eh]

	 ================> DF-SCS-MP2 Energies <==================
	-----------------------------------------------------------
	 SCS Same-Spin Scale       =       0.3333333333333333 [-]
	 SCS Opposite-Spin Scale   =       1.2000000000000000 [-]
	 SCS Same-Spin Energy      =      -0.2253347032896266 [Eh]
	 SCS Opposite-Spin Energy  =      -2.4198123393052611 [Eh]
	 SCS Correlation Energy    =      -2.6451470425948882 [Eh]
	 SCS Total Energy          =    -652.8253063670748588 [Eh]
	-----------------------------------------------------------

  -Total Gradient:
     Atom            X                  Y                   Z
    ------   -----------------  -----------------  -----------------
       1       -0.000017228760    -0.000018260123     0.000019717933
       2        0.000012959942    -0.000004848674    -0.000002379248
       3       -0.000017979529    -0.000013873441    -0.000053912829
       4        0.000030652895     0.000008924804     0.000003744263
       5       -0.000004873225    -0.000001246404    -0.000016863942
       6        0.000052200261    -0.000049487867     0.000126410512
       7       -0.000024406583     0.000035107789    -0.000070331789
       8        0.000035986344     0.000016987564    -0.000033639049
       9       -0.000033783170     0.000002587236     0.000045909348
      10        0.000021306551    -0.000009535826    -0.000019830097
      11       -0.000005232141     0.000012049839     0.000002667238
      12       -0.000027853344     0.000018099658    -0.000014776772
      13       -0.000007798787     0.000003114287     0.000016705260
      14        0.000000300092    -0.000003930498    -0.000007131285
      15        0.000003406612    -0.000001451190    -0.000002669878
      16       -0.000001342074     0.000000559066     0.000004750933
      17       -0.000001730252    -0.000000720469    -0.000011210961
      18        0.000006739622    -0.000003489212     0.000003109301
      19       -0.000002864345     0.000001211962     0.000008196692
      20       -0.000030871009    -0.000002004954    -0.000037376160
      21        0.000018517950     0.000007243117     0.000034260346
      22       -0.000006107047     0.000002963338     0.000004650184

  **** Optimization is complete! (in 6 steps) ****
    Final optimized geometry and variables:
    Molecular point group: c1

    Geometry (in Angstrom), charge = 0, multiplicity = 1:

    C           -1.344520498407     0.770355392432    -0.759798146299
    C           -2.413673105345     1.338676564783    -0.089982434789
    C            0.829103393313    -1.776139689221    -1.166273367019
    C            1.974666824048     0.303261920415    -1.102929761346
    C           -1.414590606465     0.713426270749     2.004472260999
    C            1.921346113308    -2.300474342273    -1.840801454951
    C            3.018597005350    -0.308030066222    -1.780774178522
    C           -0.291137267633     0.164120096896    -0.078801900360
    C            0.845981550250    -0.440850180461    -0.784512071033
    C           -2.448096483663     1.309704655764     1.297001318626
    C           -0.364154805722     0.156560458581     1.303398234982
    N            3.007668580636    -1.590071569732    -2.152223228704
    O           -3.520305077870     1.881674060656     1.909140685240
    F            0.630231537336    -0.417878995242     2.004115399967
    H           -1.316169358814     0.791923680517    -1.838930785293
    H           -3.224360613496     1.805614421478    -0.625812671891
    H           -0.024432624873    -2.397191653864    -0.939319432931
    H            2.037280335656     1.344646587579    -0.824838662778
    H           -1.410300082671     0.673734013124     3.083083182457
    H            1.924705794015    -3.337340193841    -2.146283031088
    H            3.904426739374     0.256074513010    -2.036722822001
    H           -3.424437030857     1.795611898710     2.862348881928

*** Psi4 exiting successfully. Buy a developer a beer!
