                               Psi4 1.1 release

  ==> Input File <==

--------------------------------------------------------------------------

memory 5 Gb

molecule phepyrOH_anion {
  symmetry C1
  -1 1
  C      1.885   -1.036   -0.112
  C      2.878   -1.652   2.002
  C      0.807   -0.463   0.561
  C      1.800   -1.079   2.676
  C      4.253   -1.945   -1.435
  C      4.907   -3.080   0.582
  C      5.339   -2.538   -2.058
  C      5.964   -3.623   -0.131
  C      2.921   -1.631   0.608
  C      4.040   -2.226   -0.090
  C      0.764   -0.484   1.955
  N      6.203   -3.373   -1.438
  O      -0.227   0.042   2.574
  H      1.904   -1.011   -1.199
  H      3.678   -2.112   2.577
  H      0.011   -0.006   -0.025
  H      1.791   -1.108   3.764
  H      3.598   -1.282   -1.993
  H      4.772   -3.323   1.631
  H      5.550   -2.350   -3.105
  H      6.668   -4.296   0.347
  units Angstrom
}

dih_string = "1 9 10 5 15"
set optking fixed_dihedral = $dih_string

optimize('MP2/aug-cc-PVTZ')
--------------------------------------------------------------------------

    Molecular point group: c1
  Charge       = -1
  Multiplicity = 1
  Basis Set: AUG-CC-PVTZ
    Blend: AUG-CC-PVTZ
  Basis Set: (AUG-CC-PVTZ AUX)
    Blend: AUG-CC-PVTZ-JKFIT
  @DF-RHF Final Energy:  -550.71378641128138
    Total Energy =                       -550.7137864112813759
  Basis Set: (AUG-CC-PVTZ AUX)
    Blend: AUG-CC-PVTZ-RI
    Molecular point group: c1
  Basis Set: AUG-CC-PVTZ
    Blend: AUG-CC-PVTZ
  Basis Set: (AUG-CC-PVTZ AUX)
    Blend: AUG-CC-PVTZ-JKFIT
  Basis Set: (AUG-CC-PVTZ AUX)
    Blend: AUG-CC-PVTZ-JKFIT
	 Reference Energy          =    -550.7137864112813759 [Eh]
	 Singles Energy            =      -0.0000000000000002 [Eh]
	 Same-Spin Energy          =      -0.6143419211062164 [Eh]
	 Opposite-Spin Energy      =      -1.8396736345699818 [Eh]
	 Correlation Energy        =      -2.4540155556761989 [Eh]
	 Total Energy              =    -553.1678019669575406 [Eh]
	 SCS Total Energy          =    -553.1261754131340922 [Eh]
  @DF-RHF Final Energy:  -550.72227823002368
    Total Energy =                       -550.7222782300236759
  @DF-RHF Final Energy:  -550.72750940115418
    Total Energy =                       -550.7275094011541796
  @DF-RHF Final Energy:  -550.72983073863429
    Total Energy =                       -550.7298307386342913
  @DF-RHF Final Energy:  -550.73008249647592
    Total Energy =                       -550.7300824964759158
  @DF-RHF Final Energy:  -550.73007735809529
    Total Energy =                       -550.7300773580952864
  Charge       = -1
  Multiplicity = 1
  Basis Set: AUG-CC-PVTZ
    Blend: AUG-CC-PVTZ
  Basis Set: (AUG-CC-PVTZ AUX)
    Blend: AUG-CC-PVTZ-JKFIT

    Orbital Energies (a.u.)
    -----------------------

    Doubly Occupied:

       1A    -20.324850     2A    -15.440521     3A    -11.159896
       4A    -11.159880     5A    -11.146927     6A    -11.137330
       7A    -11.112088     8A    -11.112065     9A    -11.103532
      10A    -11.103516    11A    -11.078894    12A    -11.065469
      13A    -11.065454    14A     -1.155400    15A     -1.139585
      16A     -1.017166    17A     -0.957860    18A     -0.916354
      19A     -0.871360    20A     -0.840323    21A     -0.741196
      22A     -0.735377    23A     -0.675446    24A     -0.653346
      25A     -0.598034    26A     -0.547550    27A     -0.538592
      28A     -0.511228    29A     -0.485486    30A     -0.483435
      31A     -0.476030    32A     -0.441012    33A     -0.431657
      34A     -0.424988    35A     -0.397366    36A     -0.384909
      37A     -0.378553    38A     -0.347278    39A     -0.324057
      40A     -0.305686    41A     -0.248132    42A     -0.237290
      43A     -0.229934    44A     -0.205088    45A     -0.109213

  @DF-RHF Final Energy:  -550.73007376203486

   => Energetics <=

    Nuclear Repulsion Energy =            682.1372503297942558
    One-Electron Energy =               -2114.0959431545115876
    Two-Electron Energy =                 881.2286190626823554
    DFT Exchange-Correlation Energy =       0.0000000000000000
    Empirical Dispersion Energy =           0.0000000000000000
    PCM Polarization Energy =               0.0000000000000000
    EFP Energy =                            0.0000000000000000
    Total Energy =                       -550.7300737620348627
  Basis Set: (AUG-CC-PVTZ AUX)
    Blend: AUG-CC-PVTZ-RI
    Molecular point group: c1
  Basis Set: AUG-CC-PVTZ
    Blend: AUG-CC-PVTZ
  Basis Set: (AUG-CC-PVTZ AUX)
    Blend: AUG-CC-PVTZ-JKFIT
  Basis Set: (AUG-CC-PVTZ AUX)
    Blend: AUG-CC-PVTZ-JKFIT
	 Reference Energy          =    -550.7300737620348627 [Eh]
	 Singles Energy            =      -0.0000000000000002 [Eh]
	 Same-Spin Energy          =      -0.6122084915254692 [Eh]
	 Opposite-Spin Energy      =      -1.8370238029292716 [Eh]
	 Correlation Energy        =      -2.4492322944547409 [Eh]
	 Total Energy              =    -553.1793060564896223 [Eh]

	 ================> DF-SCS-MP2 Energies <==================
	-----------------------------------------------------------
	 SCS Same-Spin Scale       =       0.3333333333333333 [-]
	 SCS Opposite-Spin Scale   =       1.2000000000000000 [-]
	 SCS Same-Spin Energy      =      -0.2040694971751564 [Eh]
	 SCS Opposite-Spin Energy  =      -2.2044285635151257 [Eh]
	 SCS Correlation Energy    =      -2.4084980606902819 [Eh]
	 SCS Total Energy          =    -553.1385718227251118 [Eh]
	-----------------------------------------------------------

  -Total Gradient:
     Atom            X                  Y                   Z
    ------   -----------------  -----------------  -----------------
       1       -0.000081619626    -0.000188452790    -0.000012106022
       2        0.000033868096     0.000030513962    -0.000017855745
       3        0.000012081783     0.000014958096     0.000001986144
       4       -0.000006957625    -0.000013887134    -0.000007218998
       5        0.000099647305     0.000165225726     0.000044161415
       6       -0.000031957947    -0.000023447603     0.000002136660
       7       -0.000024496385    -0.000058080899    -0.000015120658
       8        0.000043462216     0.000050102726     0.000002616554
       9        0.000207478958     0.000268374560     0.000012820878
      10       -0.000194625157    -0.000271142078    -0.000052631309
      11       -0.000058186897     0.000022648251     0.000030782466
      12       -0.000000506446    -0.000002546691    -0.000000164935
      13        0.000023604079    -0.000007509152    -0.000011964263
      14       -0.000016259534     0.000014321130     0.000000571292
      15       -0.000006077804     0.000002087801     0.000018353366
      16        0.000007208158     0.000005364735    -0.000012728276
      17        0.000005541492    -0.000017208798     0.000004389898
      18        0.000001994071    -0.000001708485     0.000008855995
      19       -0.000005656074     0.000003078044    -0.000002656191
      20        0.000004890859     0.000013133451     0.000009442761
      21       -0.000013433522    -0.000005824849    -0.000003671025

  **** Optimization is complete! (in 7 steps) ****
    Final optimized geometry and variables:
    Molecular point group: c1

    Geometry (in Angstrom), charge = -1, multiplicity = 1:

    C           -1.300870978678     0.742251469303    -0.535125869504
    C           -0.326801713345     0.124650197033     1.551505619898
    C           -2.370223069349     1.305138672593     0.121606512807
    C           -1.384990395190     0.691951405766     2.222367764603
    C            1.149447991845    -0.223593585699    -1.902533576046
    C            1.787195832309    -1.338198889465     0.069460059428
    C            2.228624061144    -0.817461776317    -2.529551920300
    C            2.843900561899    -1.881220968770    -0.636930837138
    C           -0.237050396277     0.127983029914     0.148538501769
    C            0.875407945369    -0.466013303372    -0.546792094522
    C           -2.487567849778     1.322835976443     1.552701415321
    N            3.094410280263    -1.646541807484    -1.931724306564
    O           -3.463472975676     1.841538404196     2.161822448023
    H           -1.303766343785     0.752598001170    -1.617280212216
    H            0.473643757571    -0.310201642095     2.135770033209
    H           -3.177203093694     1.753718950684    -0.442394455987
    H           -1.407931432781     0.683345549646     3.304007465218
    H            0.527961565413     0.449543605681    -2.472483582446
    H            1.663158310016    -1.613836638823     1.105238820580
    H            2.415703912906    -0.609021130016    -3.575857237133
    H            3.528979461604    -2.553292226809    -0.134749863525

*** Psi4 exiting successfully. Buy a developer a beer!
