                              Psi4 1.0.0 Driver

  ==> Input File <==

--------------------------------------------------------------------------

memory 1000 mb

molecule butane {
  symmetry C1
  0 1
  H      1.604   0.760   -8.260
  H      1.745   2.388   -8.880
  H      2.043   1.024   -9.930
  C      2.142   1.395   -8.932
  H      4.169   2.051   -9.210
  H      3.731   1.788   -7.539
  C      3.631   1.416   -8.537
  H      3.682   -0.566   -9.364
  H      5.243   0.033   -8.859
  C      4.203   -0.012   -8.612
  H      4.426   -1.699   -7.302
  H      2.989   -0.753   -7.002
  H      4.550   -0.154   -6.497
  C      4.029   -0.708   -7.250
  units Angstrom
}

dih_string = "4 7 10 14 270"
set optking fixed_dihedral = $dih_string

optimize('MP2/6-31G(d)')
--------------------------------------------------------------------------

    Molecular point group: c1
  Charge       = 0
  Multiplicity = 1
  Basis Set: 6-31G(D)
  Basis Set:
  @DF-RHF Final Energy:  -157.29044849777529
    Total Energy =                       -157.2904484977753441
  Basis Set:
    Molecular point group: c1
  Basis Set: 6-31G(D)
  Basis Set:
  Basis Set:
	 Reference Energy          =    -157.2904484977752873 [Eh]
	 Singles Energy            =      -0.0000000000000000 [Eh]
	 Same-Spin Energy          =      -0.1245604041442929 [Eh]
	 Opposite-Spin Energy      =      -0.4204365063430057 [Eh]
	 Correlation Energy        =      -0.5449969104872986 [Eh]
	 Total Energy              =    -157.8354454082625864 [Eh]
	 SCS Total Energy          =    -157.8364924401016651 [Eh]
  Basis Set: 6-31G(D)
  Basis Set:
  @DF-RHF Final Energy:  -157.29338663348381
    Total Energy =                       -157.2933866334838910
  Basis Set:
  Basis Set: 6-31G(D)
  Basis Set:
  @DF-RHF Final Energy:  -157.29426284004569
    Total Energy =                       -157.2942628400456897
  @DF-RHF Final Energy:  -157.29457177984233
    Total Energy =                       -157.2945717798423857
  @DF-RHF Final Energy:  -157.29464207328419
    Total Energy =                       -157.2946420732843364
  @DF-RHF Final Energy:  -157.29465578355862
    Total Energy =                       -157.2946557835585395
  @DF-RHF Final Energy:  -157.29464192211003
    Total Energy =                       -157.2946419221100314
	 Singles Energy            =      -0.0000000000000000 [Eh]
	 Same-Spin Energy          =      -0.1244592835382432 [Eh]
	 Opposite-Spin Energy      =      -0.4224250676094931 [Eh]
	 Correlation Energy        =      -0.5468843511477363 [Eh]
	 Total Energy              =    -157.8415262732577560 [Eh]
	 SCS Total Energy          =    -157.8430384310875070 [Eh]
  Charge       = 0
  Multiplicity = 1
  Basis Set: 6-31G(D)
  Basis Set:

    Orbital Energies (a.u.)
    -----------------------

    Doubly Occupied:

       1A    -11.215674     2A    -11.215094     3A    -11.210336
       4A    -11.210333     5A     -1.069494     6A     -0.976785
       7A     -0.865795     8A     -0.780659     9A     -0.623127
      10A     -0.614351    11A     -0.576113    12A     -0.538446
      13A     -0.520528    14A     -0.505321    15A     -0.466604
      16A     -0.455352    17A     -0.453159

  @DF-RHF Final Energy:  -157.29464644920913

   => Energetics <=

    Nuclear Repulsion Energy =            131.9910592881468858
    One-Electron Energy =                -471.9770706911651814
    Two-Electron Energy =                 182.6913649538093409
    DFT Exchange-Correlation Energy =       0.0000000000000000
    Empirical Dispersion Energy =           0.0000000000000000
    PCM Polarization Energy =               0.0000000000000000
    EFP Energy =                            0.0000000000000000
    Total Energy =                       -157.2946464492089831
  Basis Set:
    Molecular point group: c1
  Basis Set: 6-31G(D)
  Basis Set:
  Basis Set:
	 Reference Energy          =    -157.2946464492091252 [Eh]
	 Singles Energy            =      -0.0000000000000000 [Eh]
	 Same-Spin Energy          =      -0.1244572245026146 [Eh]
	 Opposite-Spin Energy      =      -0.4224231759995541 [Eh]
	 Correlation Energy        =      -0.5468804005021688 [Eh]
	 Total Energy              =    -157.8415268497113004 [Eh]

	 ================> DF-SCS-MP2 Energies <==================
	-----------------------------------------------------------
	 SCS Same-Spin Scale       =       0.3333333333333333 [-]
	 SCS Opposite-Spin Scale   =       1.2000000000000000 [-]
	 SCS Same-Spin Energy      =      -0.0414857415008715 [Eh]
	 SCS Opposite-Spin Energy  =      -0.5069078111994649 [Eh]
	 SCS Correlation Energy    =      -0.5483935527003365 [Eh]
	 SCS Total Energy          =    -157.8430400019094577 [Eh]
	-----------------------------------------------------------

  -Total Gradient:
     Atom            X                  Y                   Z
    ------   -----------------  -----------------  -----------------
       1       -0.000007344576    -0.000001085551    -0.000000029994
       2       -0.000002147890     0.000004736138     0.000001213012
       3        0.000006248445     0.000002734842    -0.000000945170
       4        0.000756645877     0.000310273633    -0.002732729739
       5       -0.000003714105     0.000000714794     0.000000890494
       6       -0.000004453778     0.000000504337    -0.000012437130
       7       -0.000086180156     0.000008755614     0.004112772106
       8        0.000008451628     0.000001235744     0.000010205340
       9       -0.000001560491    -0.000002992130     0.000002137580
      10       -0.003169875684    -0.001410153159    -0.002209565448
      11        0.000000979833    -0.000004909689    -0.000000629416
      12       -0.000003091830    -0.000003396840     0.000006063075
      13        0.000004440577     0.000001886438    -0.000005000694
      14        0.002501602153     0.001091695832     0.000828055983

  **** Optimization is complete! (in 8 steps) ****
    Final optimized geometry and variables:
    Molecular point group: c1

    Geometry (in Angstrom), charge = 0, multiplicity = 1:

    H           -1.955379523284     0.245527690986     0.003880992705
    H           -1.785967725533     1.890288435978    -0.617863606440
    H           -1.475456269525     0.507790911995    -1.676693304156
    C           -1.359961012929     0.883695244475    -0.656185340842
    H            0.663570870062     1.517817144553    -0.952534486275
    H            0.231737288544     1.342732611998     0.737101992244
    C            0.111234488104     0.882608962267    -0.250608589145
    H            0.264436904339    -1.129261992104    -1.027031795200
    H            1.790578297482    -0.461956219673    -0.481503722208
    C            0.723857517343    -0.523323807210    -0.237362083729
    H            0.984600134714    -2.235063755084     1.086126936405
    H           -0.471028595775    -1.289451832721     1.413948000961
    H            1.112232881991    -0.664063504208     1.888936915987
    C            0.578676427913    -1.219830615857     1.112714566630

*** Psi4 exiting successfully. Buy a developer a beer!
