                               Psi4 1.1 release

  ==> Input File <==

--------------------------------------------------------------------------

memory 1000 mb

molecule butane {
  symmetry C1
  0 1
  H      1.604   0.760   -8.259
  H      1.745   2.388   -8.879
  H      2.042   1.024   -9.929
  C      2.142   1.395   -8.931
  H      4.169   2.051   -9.210
  H      3.731   1.788   -7.539
  C      3.631   1.416   -8.537
  H      3.665   -0.647   -7.940
  H      4.104   -0.384   -9.610
  C      4.203   -0.012   -8.612
  H      6.088   -0.983   -8.270
  H      5.791   0.381   -7.220
  H      6.230   0.644   -8.890
  C      5.691   0.009   -8.218
  units Angstrom
}

dih_string = "14 10 7 4 180.001"
set optking fixed_dihedral = $dih_string

optimize('MP2/aug-cc-pvtz')
--------------------------------------------------------------------------

    Molecular point group: c1
  Charge       = 0
  Multiplicity = 1
  Basis Set: AUG-CC-PVTZ
    Blend: AUG-CC-PVTZ
  Basis Set: (AUG-CC-PVTZ AUX)
    Blend: AUG-CC-PVTZ-JKFIT
  @DF-RHF Final Energy:  -157.35282811935389
    Total Energy =                       -157.3528281193538874
  Basis Set: (AUG-CC-PVTZ AUX)
    Blend: AUG-CC-PVTZ-RI
    Molecular point group: c1
  Basis Set: AUG-CC-PVTZ
    Blend: AUG-CC-PVTZ
  Basis Set: (AUG-CC-PVTZ AUX)
    Blend: AUG-CC-PVTZ-JKFIT
  Basis Set: (AUG-CC-PVTZ AUX)
    Blend: AUG-CC-PVTZ-JKFIT
	 Reference Energy          =    -157.3528281193538874 [Eh]
	 Singles Energy            =      -0.0000000000000001 [Eh]
	 Same-Spin Energy          =      -0.1653653358311224 [Eh]
	 Opposite-Spin Energy      =      -0.6386367452454700 [Eh]
	 Correlation Energy        =      -0.8040020810765925 [Eh]
	 Total Energy              =    -158.1568302004304769 [Eh]
	 SCS Total Energy          =    -158.1743139922588171 [Eh]
  @DF-RHF Final Energy:  -157.35544925501702
    Total Energy =                       -157.3554492550170210
  @DF-RHF Final Energy:  -157.35621724696912
    Total Energy =                       -157.3562172469691234
  @DF-RHF Final Energy:  -157.35641574810353
    Total Energy =                       -157.3564157481035295
  Charge       = 0
  Multiplicity = 1
  Basis Set: AUG-CC-PVTZ
    Blend: AUG-CC-PVTZ
  Basis Set: (AUG-CC-PVTZ AUX)
    Blend: AUG-CC-PVTZ-JKFIT

    Orbital Energies (a.u.)
    -----------------------

    Doubly Occupied:

       1A    -11.211381     2A    -11.210740     3A    -11.206064
       4A    -11.206057     5A     -1.074536     6A     -0.982302
       7A     -0.860894     8A     -0.787866     9A     -0.641284
      10A     -0.585826    11A     -0.577264    12A     -0.568051
      13A     -0.514574    14A     -0.494202    15A     -0.469826
      16A     -0.461416    17A     -0.456789

  @DF-RHF Final Energy:  -157.35640854331925

   => Energetics <=

    Nuclear Repulsion Energy =            131.5647731415942872
    One-Electron Energy =                -471.2242177089635220
    Two-Electron Energy =                 182.3030360240499874
    DFT Exchange-Correlation Energy =       0.0000000000000000
    Empirical Dispersion Energy =           0.0000000000000000
    PCM Polarization Energy =               0.0000000000000000
    EFP Energy =                            0.0000000000000000
    Total Energy =                       -157.3564085433192474
  Basis Set: (AUG-CC-PVTZ AUX)
    Blend: AUG-CC-PVTZ-RI
    Molecular point group: c1
  Basis Set: AUG-CC-PVTZ
    Blend: AUG-CC-PVTZ
  Basis Set: (AUG-CC-PVTZ AUX)
    Blend: AUG-CC-PVTZ-JKFIT
  Basis Set: (AUG-CC-PVTZ AUX)
    Blend: AUG-CC-PVTZ-JKFIT
	 Reference Energy          =    -157.3564085433192474 [Eh]
	 Singles Energy            =      -0.0000000000000000 [Eh]
	 Same-Spin Energy          =      -0.1654587371187524 [Eh]
	 Opposite-Spin Energy      =      -0.6391452087549355 [Eh]
	 Correlation Energy        =      -0.8046039458736880 [Eh]
	 Total Energy              =    -158.1610124891929274 [Eh]

	 ================> DF-SCS-MP2 Energies <==================
	-----------------------------------------------------------
	 SCS Same-Spin Scale       =       0.3333333333333333 [-]
	 SCS Opposite-Spin Scale   =       1.2000000000000000 [-]
	 SCS Same-Spin Energy      =      -0.0551529123729175 [Eh]
	 SCS Opposite-Spin Energy  =      -0.7669742505059226 [Eh]
	 SCS Correlation Energy    =      -0.8221271628788401 [Eh]
	 SCS Total Energy          =    -158.1785357061980903 [Eh]
	-----------------------------------------------------------

  -Total Gradient:
     Atom            X                  Y                   Z
    ------   -----------------  -----------------  -----------------
       1       -0.000034272864    -0.000025544165     0.000025281487
       2       -0.000013327827     0.000040692050     0.000002712115
       3       -0.000015607356    -0.000015397238    -0.000047154894
       4        0.000113794047    -0.000036665016     0.000025924393
       5        0.000006839169    -0.000006346726    -0.000023947974
       6       -0.000003082260    -0.000012554209     0.000022054149
       7        0.000003649604     0.000025346435     0.000005889898
       8       -0.000008824246     0.000005407688     0.000023710868
       9        0.000004534115     0.000012467425    -0.000023469495
      10       -0.000005598974    -0.000024596002    -0.000003620379
      11        0.000014206010    -0.000043805127    -0.000003131511
      12        0.000014960839     0.000014238188     0.000044966565
      13        0.000032657358     0.000024724888    -0.000025071518
      14       -0.000109927616     0.000042031808    -0.000024143702

  **** Optimization is complete! (in 5 steps) ****
    Final optimized geometry and variables:
    Molecular point group: c1

    Geometry (in Angstrom), charge = 0, multiplicity = 1:

    H           -2.348818475251     0.052793770506     0.311337085627
    H           -2.202141882666     1.692663570077    -0.310767557397
    H           -1.907747866176     0.317971428819    -1.369662296559
    C           -1.775399462092     0.693381755760    -0.356431316720
    H            0.247812123143     1.356432673188    -0.635212643049
    H           -0.190793040156     1.092678654457     1.036555704939
    C           -0.308189079186     0.692161548612     0.028338766874
    H           -0.247845174196    -1.356454991188     0.635138781919
    H            0.190853783859    -1.092642888819    -1.036599536384
    C            0.308192683240    -0.692159384597    -0.028360292339
    H            2.202152108104    -1.692661998019     0.310731113084
    H            1.907712463703    -0.318041131666     1.369711197548
    H            2.348811694000    -0.052745206001    -0.311263697757
    C            1.775396216290    -0.693383405898     0.356455516954

*** Psi4 exiting successfully. Buy a developer a beer!
