                              Psi4 1.0.0 Driver

  ==> Input File <==

--------------------------------------------------------------------------

memory 1000 mb

molecule butane {
  symmetry C1
  0 1
  H      1.604   0.760   -8.260
  H      1.745   2.388   -8.880
  H      2.043   1.024   -9.930
  C      2.142   1.395   -8.932
  H      4.169   2.051   -9.210
  H      3.731   1.788   -7.539
  C      3.631   1.416   -8.537
  H      4.989   -0.119   -7.894
  H      3.428   -0.718   -8.400
  C      4.203   -0.012   -8.612
  H      5.156   -1.261   -10.076
  H      5.534   0.436   -10.237
  H      3.973   -0.163   -10.743
  C      4.759   -0.270   -10.024
  units Angstrom
}

dih_string = "4 7 10 14 90"
set optking fixed_dihedral = $dih_string

optimize('MP2/6-31G(d)')
--------------------------------------------------------------------------

    Molecular point group: c1
  Charge       = 0
  Multiplicity = 1
  Basis Set: 6-31G(D)
  Basis Set:
  @DF-RHF Final Energy:  -157.29044253794606
    Total Energy =                       -157.2904425379458075
  Basis Set:
    Molecular point group: c1
  Basis Set: 6-31G(D)
  Basis Set:
  Basis Set:
	 Reference Energy          =    -157.2904425379460633 [Eh]
	 Singles Energy            =      -0.0000000000000000 [Eh]
	 Same-Spin Energy          =      -0.1245611502887230 [Eh]
	 Opposite-Spin Energy      =      -0.4204383693740880 [Eh]
	 Correlation Energy        =      -0.5449995196628110 [Eh]
	 Total Energy              =    -157.8354420576088728 [Eh]
	 SCS Total Energy          =    -157.8364889646245501 [Eh]
  Basis Set: 6-31G(D)
  Basis Set:
  @DF-RHF Final Energy:  -157.29337672446215
    Total Energy =                       -157.2933767244620071
  Basis Set:
  Basis Set: 6-31G(D)
  Basis Set:
  @DF-RHF Final Energy:  -157.29425189807210
    Total Energy =                       -157.2942518980722184
  @DF-RHF Final Energy:  -157.29456473895533
    Total Energy =                       -157.2945647389552732
  @DF-RHF Final Energy:  -157.29463988656380
    Total Energy =                       -157.2946398865638571
  @DF-RHF Final Energy:  -157.29465494391619
    Total Energy =                       -157.2946549439163277
  @DF-RHF Final Energy:  -157.29464204318512
    Total Energy =                       -157.2946420431853767
	 Singles Energy            =      -0.0000000000000000 [Eh]
	 Same-Spin Energy          =      -0.1244590599629660 [Eh]
	 Opposite-Spin Energy      =      -0.4224250489518627 [Eh]
	 Correlation Energy        =      -0.5468841089148286 [Eh]
	 Total Energy              =    -157.8415261520999593 [Eh]
	 SCS Total Energy          =    -157.8430384552483474 [Eh]
  Charge       = 0
  Multiplicity = 1
  Basis Set: 6-31G(D)
  Basis Set:

    Orbital Energies (a.u.)
    -----------------------

    Doubly Occupied:

       1A    -11.215674     2A    -11.215094     3A    -11.210336
       4A    -11.210333     5A     -1.069494     6A     -0.976784
       7A     -0.865793     8A     -0.780659     9A     -0.623129
      10A     -0.614349    11A     -0.576114    12A     -0.538445
      13A     -0.520528    14A     -0.505320    15A     -0.466600
      16A     -0.455352    17A     -0.453163

  @DF-RHF Final Energy:  -157.29464631846915

   => Energetics <=

    Nuclear Repulsion Energy =            131.9909800930844028
    One-Electron Energy =                -471.9769179269291044
    Two-Electron Energy =                 182.6912915153756103
    DFT Exchange-Correlation Energy =       0.0000000000000000
    Empirical Dispersion Energy =           0.0000000000000000
    PCM Polarization Energy =               0.0000000000000000
    EFP Energy =                            0.0000000000000000
    Total Energy =                       -157.2946463184690629
  Basis Set:
    Molecular point group: c1
  Basis Set: 6-31G(D)
  Basis Set:
  Basis Set:
	 Reference Energy          =    -157.2946463184691481 [Eh]
	 Singles Energy            =      -0.0000000000000000 [Eh]
	 Same-Spin Energy          =      -0.1244571869380458 [Eh]
	 Opposite-Spin Energy      =      -0.4224232692743552 [Eh]
	 Correlation Energy        =      -0.5468804562124010 [Eh]
	 Total Energy              =    -157.8415267746815402 [Eh]

	 ================> DF-SCS-MP2 Energies <==================
	-----------------------------------------------------------
	 SCS Same-Spin Scale       =       0.3333333333333333 [-]
	 SCS Opposite-Spin Scale   =       1.2000000000000000 [-]
	 SCS Same-Spin Energy      =      -0.0414857289793486 [Eh]
	 SCS Opposite-Spin Energy  =      -0.5069079231292262 [Eh]
	 SCS Correlation Energy    =      -0.5483936521085748 [Eh]
	 SCS Total Energy          =    -157.8430399705777347 [Eh]
	-----------------------------------------------------------

  -Total Gradient:
     Atom            X                  Y                   Z
    ------   -----------------  -----------------  -----------------
       1        0.000005267824     0.000001609859     0.000006198607
       2       -0.000001489730     0.000006440073    -0.000000886964
       3       -0.000006265325    -0.000001322499    -0.000005050649
       4       -0.000670309874    -0.000543807137     0.002715080554
       5       -0.000012781911    -0.000003873138     0.000006868862
       6       -0.000002144982    -0.000000188674    -0.000002743503
       7        0.001891898917     0.001198542999    -0.003444514286
       8       -0.000000826229    -0.000000829448    -0.000003268777
       9        0.000012619091     0.000003933058    -0.000007455229
      10       -0.003717694001    -0.001747327926    -0.000085522519
      11        0.000000691616    -0.000005804236     0.000000022068
      12        0.000001920017     0.000000391782     0.000008081585
      13       -0.000000656142    -0.000000733170    -0.000008220346
      14        0.002499770728     0.001092968458     0.000821410597

  **** Optimization is complete! (in 8 steps) ****
    Final optimized geometry and variables:
    Molecular point group: c1

    Geometry (in Angstrom), charge = 0, multiplicity = 1:

    H           -2.131789152039     0.112692872880     0.830141084731
    H           -2.001799399071     1.760029200613     0.199076925243
    H           -1.727224290390     0.380298744348    -0.869322784787
    C           -1.570914932101     0.756161029446     0.146436727509
    H            0.453264696443     1.476845116727    -0.115643977344
    H            0.008994652042     1.126754304626     1.543300171433
    C           -0.089840466313     0.762658685521     0.514259074333
    H            1.370909685436    -0.712122102640     1.124687459709
    H           -0.174326501753    -1.393029969394     0.654959111546
    C            0.559389775353    -0.621568900590     0.393595465843
    H            1.551134053856    -1.895443174497    -1.070424251497
    H            1.927633222958    -0.174034608044    -1.224864055527
    H            0.362942671313    -0.790241230301    -1.768459788545
    C            1.131622240569    -0.888159321709    -0.995791215022

*** Psi4 exiting successfully. Buy a developer a beer!
