                               Psi4 1.1 release

  ==> Input File <==

--------------------------------------------------------------------------

memory 5 Gb

molecule phepyrFOH_anion {
  symmetry C1
  -1 1
  C      1.885   -1.036   -0.112
  C      0.807   -0.463   0.561
  C      5.157   -1.458   -0.400
  C      3.996   -3.563   -0.467
  C      1.800   -1.079   2.676
  C      6.201   -2.073   -1.073
  C      5.092   -4.084   -1.137
  C      2.921   -1.631   0.608
  C      4.038   -2.224   -0.095
  C      0.764   -0.484   1.955
  C      2.878   -1.652   2.002
  N      6.196   -3.371   -1.451
  O      -0.227   0.043   2.574
  F      3.866   -2.220   2.709
  H      1.904   -1.013   -1.200
  H      0.011   -0.007   -0.025
  H      5.227   -0.410   -0.125
  H      3.140   -4.192   -0.246
  H      1.791   -1.109   3.764
  H      7.097   -1.520   -1.333
  H      5.108   -5.123   -1.450
  units Angstrom
}

dih_string = "1 8 9 3 90"
set optking fixed_dihedral = $dih_string

optimize('MP2/aug-cc-PVTZ')
--------------------------------------------------------------------------

    Molecular point group: c1
  Charge       = -1
  Multiplicity = 1
  Basis Set: AUG-CC-PVTZ
    Blend: AUG-CC-PVTZ
  Basis Set: (AUG-CC-PVTZ AUX)
    Blend: AUG-CC-PVTZ-JKFIT
  @DF-RHF Final Energy:  -649.60453291266526
    Total Energy =                       -649.6045329126652632
  Basis Set: (AUG-CC-PVTZ AUX)
    Blend: AUG-CC-PVTZ-RI
    Molecular point group: c1
  Basis Set: AUG-CC-PVTZ
    Blend: AUG-CC-PVTZ
  Basis Set: (AUG-CC-PVTZ AUX)
    Blend: AUG-CC-PVTZ-JKFIT
  Basis Set: (AUG-CC-PVTZ AUX)
    Blend: AUG-CC-PVTZ-JKFIT
	 Reference Energy          =    -649.6045329126652632 [Eh]
	 Singles Energy            =      -0.0000000000000003 [Eh]
	 Same-Spin Energy          =      -0.6853291295217628 [Eh]
	 Opposite-Spin Energy      =      -2.0254664714838828 [Eh]
	 Correlation Energy        =      -2.7107956010056462 [Eh]
	 Total Energy              =    -652.3153285136709201 [Eh]
	 SCS Total Energy          =    -652.2635357216198599 [Eh]
  @DF-RHF Final Energy:  -649.61168616702935
    Total Energy =                       -649.6116861670293474
  @DF-RHF Final Energy:  -649.61603016365291
    Total Energy =                       -649.6160301636530221
  @DF-RHF Final Energy:  -649.61752629187117
    Total Energy =                       -649.6175262918711724
  @DF-RHF Final Energy:  -649.61746032743747
    Total Energy =                       -649.6174603274375841
  @DF-RHF Final Energy:  -649.61741765591762
    Total Energy =                       -649.6174176559177340
  Charge       = -1
  Multiplicity = 1
  Basis Set: AUG-CC-PVTZ
    Blend: AUG-CC-PVTZ
  Basis Set: (AUG-CC-PVTZ AUX)
    Blend: AUG-CC-PVTZ-JKFIT

    Orbital Energies (a.u.)
    -----------------------

    Doubly Occupied:

       1A    -26.170145     2A    -20.312394     3A    -15.465912
       4A    -11.183160     5A    -11.173162     6A    -11.173132
       7A    -11.153671     8A    -11.132560     9A    -11.130363
      10A    -11.130317    11A    -11.105063    12A    -11.080770
      13A    -11.060269    14A    -11.059390    15A     -1.480652
      16A     -1.159013    17A     -1.144216    18A     -1.022356
      19A     -0.968707    20A     -0.931294    21A     -0.867887
      22A     -0.846764    23A     -0.754668    24A     -0.743795
      25A     -0.692574    26A     -0.668703    27A     -0.610760
      28A     -0.567031    29A     -0.566661    30A     -0.550826
      31A     -0.549333    32A     -0.543217    33A     -0.506914
      34A     -0.494214    35A     -0.471430    36A     -0.450009
      37A     -0.438224    38A     -0.425663    39A     -0.416303
      40A     -0.379726    41A     -0.375421    42A     -0.365477
      43A     -0.320928    44A     -0.294944    45A     -0.269251
      46A     -0.247098    47A     -0.223670    48A     -0.199397
      49A     -0.118181

  @DF-RHF Final Energy:  -649.61740755831011

   => Energetics <=

    Nuclear Repulsion Energy =            795.7130636591765551
    One-Electron Energy =               -2480.6697102412294953
    Two-Electron Energy =                1035.3392390237429481
    DFT Exchange-Correlation Energy =       0.0000000000000000
    Empirical Dispersion Energy =           0.0000000000000000
    PCM Polarization Energy =               0.0000000000000000
    EFP Energy =                            0.0000000000000000
    Total Energy =                       -649.6174075583101057
  Basis Set: (AUG-CC-PVTZ AUX)
    Blend: AUG-CC-PVTZ-RI
    Molecular point group: c1
  Basis Set: AUG-CC-PVTZ
    Blend: AUG-CC-PVTZ
  Basis Set: (AUG-CC-PVTZ AUX)
    Blend: AUG-CC-PVTZ-JKFIT
  Basis Set: (AUG-CC-PVTZ AUX)
    Blend: AUG-CC-PVTZ-JKFIT
	 Reference Energy          =    -649.6174075583101057 [Eh]
	 Singles Energy            =      -0.0000000000000005 [Eh]
	 Same-Spin Energy          =      -0.6840124189350746 [Eh]
	 Opposite-Spin Energy      =      -2.0240651449305487 [Eh]
	 Correlation Energy        =      -2.7080775638656238 [Eh]
	 Total Energy              =    -652.3254851221756780 [Eh]

	 ================> DF-SCS-MP2 Energies <==================
	-----------------------------------------------------------
	 SCS Same-Spin Scale       =       0.3333333333333333 [-]
	 SCS Opposite-Spin Scale   =       1.2000000000000000 [-]
	 SCS Same-Spin Energy      =      -0.2280041396450249 [Eh]
	 SCS Opposite-Spin Energy  =      -2.4288781739166585 [Eh]
	 SCS Correlation Energy    =      -2.6568823135616837 [Eh]
	 SCS Total Energy          =    -652.2742898718718152 [Eh]
	-----------------------------------------------------------

  -Total Gradient:
     Atom            X                  Y                   Z
    ------   -----------------  -----------------  -----------------
       1        0.000058568197     0.000092129999     0.000035546487
       2        0.000008167096     0.000013306462     0.000013975529
       3       -0.000032028132     0.000035592086    -0.000128495265
       4       -0.000004327814    -0.000023042574    -0.000024729539
       5        0.000015629553    -0.000001297221     0.000008897319
       6       -0.000008775409     0.000022502205     0.000029968415
       7       -0.000000765829    -0.000025945721     0.000103130869
       8       -0.000066224708    -0.000122171354    -0.000119556417
       9        0.000041727904     0.000038381239     0.000187157502
      10       -0.000073536995    -0.000025006689    -0.000003596048
      11        0.000026407272    -0.000022995836     0.000031002011
      12        0.000007316639     0.000003387226    -0.000063105176
      13        0.000065247458    -0.000010670016    -0.000028229438
      14       -0.000019272068     0.000008873218    -0.000013696871
      15       -0.000002372499     0.000003301887    -0.000008109477
      16       -0.000003929193     0.000002788924    -0.000005720017
      17        0.000001920072     0.000004469070     0.000002774058
      18       -0.000005797216    -0.000002055218    -0.000006674527
      19       -0.000006477933     0.000007293233     0.000005397869
      20        0.000007045316     0.000000806345     0.000004043505
      21       -0.000008521710     0.000000352742    -0.000019980775

  **** Optimization is complete! (in 7 steps) ****
    Final optimized geometry and variables:
    Molecular point group: c1

    Geometry (in Angstrom), charge = -1, multiplicity = 1:

    C           -1.370407599502     0.772020759209    -0.750032403463
    C           -2.439563373053     1.341987947567    -0.089694328763
    C            1.972545169637     0.294245792478    -1.085977910383
    C            0.828966821557    -1.770660450227    -1.162652456793
    C           -1.446973961525     0.738799813438     2.010681468839
    C            3.018463530698    -0.312415278857    -1.764544005311
    C            1.919376612129    -2.296849604496    -1.838405524090
    C           -0.306259940452     0.167915020279    -0.069271477245
    C            0.831126995371    -0.436061481647    -0.765516311438
    C           -2.550347653291     1.363493369169     1.340876400742
    C           -0.403991494729     0.184703923712     1.314819815420
    N            3.013074891720    -1.593128205532    -2.148071957342
    O           -3.525781737386     1.883063622062     1.956491475226
    F            0.618443622871    -0.396291756241     2.023542359043
    H           -1.341433955818     0.786196871748    -1.832895145797
    H           -3.241087907530     1.798700896146    -0.653614452987
    H            2.033917388549     1.334141676968    -0.801128522071
    H           -0.027828579329    -2.388909628869    -0.939123842219
    H           -1.443497100672     0.707374874662     3.089457615523
    H            3.905537604521     0.254728778101    -2.014561820224
    H            1.917884731418    -3.333646231916    -2.148435206010

*** Psi4 exiting successfully. Buy a developer a beer!
