                               Psi4 1.1 release

  ==> Input File <==

--------------------------------------------------------------------------

memory 1000 mb

molecule butane {
  symmetry C1
  0 1
  H      2.337   1.157   -10.233
  H      2.709   2.826   -9.872
  H      3.909   1.808   -10.631
  C      3.107   1.834   -9.924
  H      4.401   2.092   -8.229
  H      2.829   1.442   -7.829
  C      3.631   1.416   -8.537
  H      3.665   -0.647   -7.940
  H      4.104   -0.384   -9.610
  C      4.203   -0.012   -8.612
  H      6.088   -0.983   -8.270
  H      5.791   0.381   -7.220
  H      6.230   0.644   -8.890
  C      5.691   0.009   -8.218
  units Angstrom
}

dih_string = "14 10 7 4 120"
set optking fixed_dihedral = $dih_string

optimize('MP2/aug-cc-pvtz')
--------------------------------------------------------------------------

    Molecular point group: c1
  Charge       = 0
  Multiplicity = 1
  Basis Set: AUG-CC-PVTZ
    Blend: AUG-CC-PVTZ
  Basis Set: (AUG-CC-PVTZ AUX)
    Blend: AUG-CC-PVTZ-JKFIT
  @DF-RHF Final Energy:  -157.34672907815863
    Total Energy =                       -157.3467290781586314
  Basis Set: (AUG-CC-PVTZ AUX)
    Blend: AUG-CC-PVTZ-RI
    Molecular point group: c1
  Basis Set: AUG-CC-PVTZ
    Blend: AUG-CC-PVTZ
  Basis Set: (AUG-CC-PVTZ AUX)
    Blend: AUG-CC-PVTZ-JKFIT
  Basis Set: (AUG-CC-PVTZ AUX)
    Blend: AUG-CC-PVTZ-JKFIT
	 Reference Energy          =    -157.3467290781586314 [Eh]
	 Singles Energy            =      -0.0000000000000001 [Eh]
	 Same-Spin Energy          =      -0.1655632245773297 [Eh]
	 Opposite-Spin Energy      =      -0.6396818064322162 [Eh]
	 Correlation Energy        =      -0.8052450310095460 [Eh]
	 Total Energy              =    -158.1519741091681794 [Eh]
	 SCS Total Energy          =    -158.1695349874030683 [Eh]
  @DF-RHF Final Energy:  -157.34944425166793
    Total Energy =                       -157.3494442516679328
  @DF-RHF Final Energy:  -157.35029715972394
    Total Energy =                       -157.3502971597239366
  @DF-RHF Final Energy:  -157.35055003125251
    Total Energy =                       -157.3505500312525101
  @DF-RHF Final Energy:  -157.35054155095199
    Total Energy =                       -157.3505415509519878
  Charge       = 0
  Multiplicity = 1
  Basis Set: AUG-CC-PVTZ
    Blend: AUG-CC-PVTZ
  Basis Set: (AUG-CC-PVTZ AUX)
    Blend: AUG-CC-PVTZ-JKFIT

    Orbital Energies (a.u.)
    -----------------------

    Doubly Occupied:

       1A    -11.211195     2A    -11.210609     3A    -11.206681
       4A    -11.206675     5A     -1.071515     6A     -0.981571
       7A     -0.862009     8A     -0.787332     9A     -0.632242
      10A     -0.600859    11A     -0.581473    12A     -0.552343
      13A     -0.509603    14A     -0.509460    15A     -0.465978
      16A     -0.454950    17A     -0.454870

  @DF-RHF Final Energy:  -157.35054743234141

   => Energetics <=

    Nuclear Repulsion Energy =            131.8033065487438478
    One-Electron Energy =                -471.7089792055870703
    Two-Electron Energy =                 182.5551252245017793
    DFT Exchange-Correlation Energy =       0.0000000000000000
    Empirical Dispersion Energy =           0.0000000000000000
    PCM Polarization Energy =               0.0000000000000000
    EFP Energy =                            0.0000000000000000
    Total Energy =                       -157.3505474323414148
  Basis Set: (AUG-CC-PVTZ AUX)
    Blend: AUG-CC-PVTZ-RI
    Molecular point group: c1
  Basis Set: AUG-CC-PVTZ
    Blend: AUG-CC-PVTZ
  Basis Set: (AUG-CC-PVTZ AUX)
    Blend: AUG-CC-PVTZ-JKFIT
  Basis Set: (AUG-CC-PVTZ AUX)
    Blend: AUG-CC-PVTZ-JKFIT
	 Reference Energy          =    -157.3505474323414148 [Eh]
	 Singles Energy            =      -0.0000000000000001 [Eh]
	 Same-Spin Energy          =      -0.1654177555515841 [Eh]
	 Opposite-Spin Energy      =      -0.6400509766127195 [Eh]
	 Correlation Energy        =      -0.8054687321643037 [Eh]
	 Total Energy              =    -158.1560161645057292 [Eh]

	 ================> DF-SCS-MP2 Energies <==================
	-----------------------------------------------------------
	 SCS Same-Spin Scale       =       0.3333333333333333 [-]
	 SCS Opposite-Spin Scale   =       1.2000000000000000 [-]
	 SCS Same-Spin Energy      =      -0.0551392518505280 [Eh]
	 SCS Opposite-Spin Energy  =      -0.7680611719352634 [Eh]
	 SCS Correlation Energy    =      -0.8232004237857915 [Eh]
	 SCS Total Energy          =    -158.1737478561271928 [Eh]
	-----------------------------------------------------------

  -Total Gradient:
     Atom            X                  Y                   Z
    ------   -----------------  -----------------  -----------------
       1        0.000010339829     0.000007002770     0.000008400552
       2        0.000004558305    -0.000010235581    -0.000006704192
       3       -0.000014643062     0.000000958159     0.000002451609
       4        0.000108800844     0.000040472383    -0.000011064392
       5       -0.000015826236    -0.000017510241     0.000009774056
       6       -0.000002720338     0.000001296717    -0.000014142085
       7       -0.000120433199    -0.000019029770    -0.000016744674
       8        0.000014203939     0.000004146875     0.000002513215
       9       -0.000013947416     0.000003963910     0.000021082274
      10        0.000021799469    -0.000026764553     0.000119072654
      11        0.000000973608     0.000013179904     0.000000713902
      12       -0.000006227343    -0.000005352544    -0.000013306931
      13       -0.000000307620    -0.000007466820     0.000012793382
      14        0.000013429219     0.000015338788    -0.000114839373

  **** Optimization is complete! (in 6 steps) ****
    Final optimized geometry and variables:
    Molecular point group: c1

    Geometry (in Angstrom), charge = 0, multiplicity = 1:

    H           -1.867379206077     0.345631821878    -1.428554672564
    H           -1.494853239291     2.028239313455    -1.065671529513
    H           -0.289780871732     1.003197351064    -1.839768688345
    C           -1.082975669255     1.021897512148    -1.094092300258
    H            0.208752354487     1.307463300856     0.586631902244
    H           -1.348454449894     0.642188330566     0.997588896777
    C           -0.548227543955     0.593314125933     0.260468771206
    H           -0.490078877765    -1.478232503345     0.894747185813
    H           -0.032681312438    -1.227401497770    -0.767853263104
    C            0.065898432004    -0.812647539526     0.235974787653
    H            1.957582221603    -1.817818449562     0.589400634968
    H            1.655693224796    -0.441893447456     1.646431764992
    H            2.107838020510    -0.176457790450    -0.031487744308
    C            1.531153129661    -0.818094382408     0.632799621971

*** Psi4 exiting successfully. Buy a developer a beer!
