                              Psi4 1.0.0 Driver

  ==> Input File <==

--------------------------------------------------------------------------

memory 1000 mb

molecule butane {
  symmetry C1
  0 1
  H      1.604   0.760   -8.260
  H      1.745   2.388   -8.880
  H      2.043   1.024   -9.930
  C      2.142   1.395   -8.932
  H      4.169   2.051   -9.210
  H      3.731   1.788   -7.539
  C      3.631   1.416   -8.537
  H      4.882   -0.081   -9.436
  H      4.721   -0.237   -7.703
  C      4.203   -0.012   -8.612
  H      3.451   -2.008   -8.862
  H      2.535   -0.792   -9.718
  H      2.373   -0.948   -7.986
  C      3.053   -1.016   -8.809
  units Angstrom
}

dih_string = "4 7 10 14 350"
set optking fixed_dihedral = $dih_string

optimize('MP2/6-31G(d)')
--------------------------------------------------------------------------

    Molecular point group: c1
  Charge       = 0
  Multiplicity = 1
  Basis Set: 6-31G(D)
  Basis Set:
  @DF-RHF Final Energy:  -157.27305217277038
    Total Energy =                       -157.2730521727703774
  Basis Set:
    Molecular point group: c1
  Basis Set: 6-31G(D)
  Basis Set:
  Basis Set:
	 Reference Energy          =    -157.2730521727703774 [Eh]
	 Singles Energy            =      -0.0000000000000000 [Eh]
	 Same-Spin Energy          =      -0.1253981088024567 [Eh]
	 Opposite-Spin Energy      =      -0.4216734103678664 [Eh]
	 Correlation Energy        =      -0.5470715191703230 [Eh]
	 Total Energy              =    -157.8201236919406938 [Eh]
	 SCS Total Energy          =    -157.8208596348126491 [Eh]
  Basis Set: 6-31G(D)
  Basis Set:
  @DF-RHF Final Energy:  -157.28344294298228
    Total Energy =                       -157.2834429429821625
  Basis Set:
  Basis Set: 6-31G(D)
  Basis Set:
  @DF-RHF Final Energy:  -157.28659994533174
    Total Energy =                       -157.2865999453317727
  @DF-RHF Final Energy:  -157.28795700671782
    Total Energy =                       -157.2879570067178179
  @DF-RHF Final Energy:  -157.28852543463410
    Total Energy =                       -157.2885254346340957
  @DF-RHF Final Energy:  -157.28858276346898
    Total Energy =                       -157.2885827634690372
  @DF-RHF Final Energy:  -157.28859569144510
    Total Energy =                       -157.2885956914452663
  @DF-RHF Final Energy:  -157.28864994842081
    Total Energy =                       -157.2886499484206979
  @DF-RHF Final Energy:  -157.28854648700985
    Total Energy =                       -157.2885464870098815
  @DF-RHF Final Energy:  -157.28857601045553
    Total Energy =                       -157.2885760104555573
	 Singles Energy            =      -0.0000000000000000 [Eh]
	 Same-Spin Energy          =      -0.1242938543015889 [Eh]
	 Opposite-Spin Energy      =      -0.4226414741495169 [Eh]
	 Correlation Energy        =      -0.5469353284511058 [Eh]
	 Total Energy              =    -157.8355113389066275 [Eh]
	 SCS Total Energy          =    -157.8371770642021374 [Eh]
  Charge       = 0
  Multiplicity = 1
  Basis Set: 6-31G(D)
  Basis Set:

    Orbital Energies (a.u.)
    -----------------------

    Doubly Occupied:

       1A    -11.216288     2A    -11.215753     3A    -11.209586
       4A    -11.209574     5A     -1.065305     6A     -0.974146
       7A     -0.876593     8A     -0.767559     9A     -0.632853
      10A     -0.613047    11A     -0.564454    12A     -0.537946
      13A     -0.524093    14A     -0.511132    15A     -0.462772
      16A     -0.457312    17A     -0.443648

  @DF-RHF Final Energy:  -157.28859101464954

   => Energetics <=

    Nuclear Repulsion Energy =            132.7209804512603739
    One-Electron Energy =                -473.4550209327357493
    Two-Electron Energy =                 183.4454494668259201
    DFT Exchange-Correlation Energy =       0.0000000000000000
    Empirical Dispersion Energy =           0.0000000000000000
    PCM Polarization Energy =               0.0000000000000000
    EFP Energy =                            0.0000000000000000
    Total Energy =                       -157.2885910146494837
  Basis Set:
    Molecular point group: c1
  Basis Set: 6-31G(D)
  Basis Set:
  Basis Set:
	 Reference Energy          =    -157.2885910146495405 [Eh]
	 Singles Energy            =      -0.0000000000000000 [Eh]
	 Same-Spin Energy          =      -0.1242893558419119 [Eh]
	 Opposite-Spin Energy      =      -0.4226374336004293 [Eh]
	 Correlation Energy        =      -0.5469267894423413 [Eh]
	 Total Energy              =    -157.8355178040918929 [Eh]

	 ================> DF-SCS-MP2 Energies <==================
	-----------------------------------------------------------
	 SCS Same-Spin Scale       =       0.3333333333333333 [-]
	 SCS Opposite-Spin Scale   =       1.2000000000000000 [-]
	 SCS Same-Spin Energy      =      -0.0414297852806373 [Eh]
	 SCS Opposite-Spin Energy  =      -0.5071649203205152 [Eh]
	 SCS Correlation Energy    =      -0.5485947056011525 [Eh]
	 SCS Total Energy          =    -157.8371857202506874 [Eh]
	-----------------------------------------------------------

  -Total Gradient:
     Atom            X                  Y                   Z
    ------   -----------------  -----------------  -----------------
       1       -0.000041773048    -0.000013765216     0.000005173519
       2       -0.000022487685     0.000010672463     0.000001874394
       3       -0.000003641421    -0.000001473302    -0.000005918470
       4       -0.000469644107    -0.000344081135     0.002774804225
       5        0.000003059293     0.000019605010    -0.000001524852
       6        0.000023198375     0.000010719899    -0.000034201699
       7        0.000806985473     0.000500549376    -0.005184361820
       8        0.000014697884     0.000004070416     0.000040171848
       9        0.000014916871    -0.000013742827     0.000003825057
      10       -0.000428235268    -0.000348978051     0.005241305952
      11       -0.000007105050    -0.000021844036    -0.000006438982
      12       -0.000037785116    -0.000015129284    -0.000017696714
      13       -0.000003534892    -0.000003809286     0.000004094110
      14        0.000151348693     0.000217205972    -0.002821106567

  **** Optimization is complete! (in 11 steps) ****
    Final optimized geometry and variables:
    Molecular point group: c1

    Geometry (in Angstrom), charge = 0, multiplicity = 1:

    H           -1.739022944493     0.540771629131     0.537740138187
    H           -1.438574835248     2.159808386584    -0.095091032779
    H           -1.388008574534     0.769759192368    -1.178781073047
    C           -1.135658123621     1.111613940052    -0.171274272983
    H            0.914058133979     1.613263158820    -0.574143190292
    H            0.538042739589     1.399309372513     1.115453974968
    C            0.357530181219     0.976277176609     0.120877036624
    H            1.602040154879    -0.545898643533    -0.791975238889
    H            1.574553007441    -0.620898908914     0.950297480879
    C            0.937222090579    -0.459967836448     0.074833238234
    H            0.437323002783    -2.559066731132    -0.056431228598
    H           -0.701460752392    -1.513814500959    -0.906529240590
    H           -0.742800790993    -1.619623601360     0.856761631362
    C           -0.079824437991    -1.596311953933    -0.012451469083

*** Psi4 exiting successfully. Buy a developer a beer!
