                               Psi4 1.1 release

  ==> Input File <==

--------------------------------------------------------------------------

memory 5 Gb

molecule phepyrFOH_zwitterion {
  symmetry C1
  0 1
  C      1.885   -1.036   -0.112
  C      0.807   -0.463   0.561
  C      3.944   -2.484   -1.459
  C      5.208   -2.536   0.592
  C      1.800   -1.079   2.676
  C      5.030   -3.054   -2.107
  C      6.262   -3.104   -0.108
  C      2.921   -1.631   0.608
  C      4.038   -2.224   -0.095
  C      0.764   -0.484   1.955
  C      2.878   -1.652   2.002
  N      6.145   -3.344   -1.422
  O      -0.227   0.043   2.574
  F      3.866   -2.220   2.709
  H      1.904   -1.013   -1.200
  H      0.011   -0.007   -0.025
  H      3.044   -2.251   -2.020
  H      5.309   -2.344   1.656
  H      1.791   -1.109   3.764
  H      5.047   -3.290   -3.162
  H      7.206   -3.378   0.342
  H      6.931   -3.764   -1.917
  units Angstrom
}

dih_string = "1 8 9 3 345"
set optking fixed_dihedral = $dih_string

optimize('MP2/aug-cc-PVTZ')
--------------------------------------------------------------------------

    Molecular point group: c1
  Charge       = 0
  Multiplicity = 1
  Basis Set: AUG-CC-PVTZ
    Blend: AUG-CC-PVTZ
  Basis Set: (AUG-CC-PVTZ AUX)
    Blend: AUG-CC-PVTZ-JKFIT
  @DF-RHF Final Energy:  -650.10282862420706
    Total Energy =                       -650.1028286242069498
  Basis Set: (AUG-CC-PVTZ AUX)
    Blend: AUG-CC-PVTZ-RI
    Molecular point group: c1
  Basis Set: AUG-CC-PVTZ
    Blend: AUG-CC-PVTZ
  Basis Set: (AUG-CC-PVTZ AUX)
    Blend: AUG-CC-PVTZ-JKFIT
  Basis Set: (AUG-CC-PVTZ AUX)
    Blend: AUG-CC-PVTZ-JKFIT
	 Reference Energy          =    -650.1028286242070635 [Eh]
	 Singles Energy            =      -0.0000000000000001 [Eh]
	 Same-Spin Energy          =      -0.6799105499705791 [Eh]
	 Opposite-Spin Energy      =      -2.0291051218310945 [Eh]
	 Correlation Energy        =      -2.7090156718016738 [Eh]
	 Total Energy              =    -652.8118442960087577 [Eh]
	 SCS Total Energy          =    -652.7643916203945764 [Eh]
  @DF-RHF Final Energy:  -650.11571298365311
    Total Energy =                       -650.1157129836531112
  @DF-RHF Final Energy:  -650.12585272593844
    Total Energy =                       -650.1258527259385573
  @DF-RHF Final Energy:  -650.13300295972203
    Total Energy =                       -650.1330029597220346
  @DF-RHF Final Energy:  -650.13712281150492
    Total Energy =                       -650.1371228115049234
  @DF-RHF Final Energy:  -650.13893029629264
    Total Energy =                       -650.1389302962925285
  @DF-RHF Final Energy:  -650.13967268466672
    Total Energy =                       -650.1396726846667207
  @DF-RHF Final Energy:  -650.13993881324382
    Total Energy =                       -650.1399388132438162
  @DF-RHF Final Energy:  -650.13993288104075
    Total Energy =                       -650.1399328810407496
  @DF-RHF Final Energy:  -650.13995294660253
    Total Energy =                       -650.1399529466025342
  @DF-RHF Final Energy:  -650.13994338880752
    Total Energy =                       -650.1399433888075237
  Charge       = 0
  Multiplicity = 1
  Basis Set: AUG-CC-PVTZ
    Blend: AUG-CC-PVTZ
  Basis Set: (AUG-CC-PVTZ AUX)
    Blend: AUG-CC-PVTZ-JKFIT

    Orbital Energies (a.u.)
    -----------------------

    Doubly Occupied:

       1A    -26.309215     2A    -20.484278     3A    -15.667745
       4A    -11.335183     5A    -11.332345     6A    -11.331183
       7A    -11.306238     8A    -11.288871     9A    -11.267593
      10A    -11.261312    11A    -11.245178    12A    -11.235573
      13A    -11.208116    14A    -11.205390    15A     -1.626465
      16A     -1.351137    17A     -1.320118    18A     -1.172230
      19A     -1.116764    20A     -1.092611    21A     -1.020255
      22A     -1.006721    23A     -0.912351    24A     -0.905355
      25A     -0.832521    26A     -0.821692    27A     -0.813372
      28A     -0.744242    29A     -0.719599    30A     -0.713352
      31A     -0.694570    32A     -0.677662    33A     -0.673869
      34A     -0.647495    35A     -0.628789    36A     -0.621628
      37A     -0.610444    38A     -0.601507    39A     -0.568651
      40A     -0.551224    41A     -0.532307    42A     -0.530129
      43A     -0.500839    44A     -0.483746    45A     -0.410403
      46A     -0.402337    47A     -0.381363    48A     -0.349350
      49A     -0.259388

  @DF-RHF Final Energy:  -650.13993900963544

   => Energetics <=

    Nuclear Repulsion Energy =            813.6540645618728149
    One-Electron Energy =               -2502.0425860611048847
    Two-Electron Energy =                1038.2485824895964015
    DFT Exchange-Correlation Energy =       0.0000000000000000
    Empirical Dispersion Energy =           0.0000000000000000
    PCM Polarization Energy =               0.0000000000000000
    EFP Energy =                            0.0000000000000000
    Total Energy =                       -650.1399390096355546
  Basis Set: (AUG-CC-PVTZ AUX)
    Blend: AUG-CC-PVTZ-RI
    Molecular point group: c1
  Basis Set: AUG-CC-PVTZ
    Blend: AUG-CC-PVTZ
  Basis Set: (AUG-CC-PVTZ AUX)
    Blend: AUG-CC-PVTZ-JKFIT
  Basis Set: (AUG-CC-PVTZ AUX)
    Blend: AUG-CC-PVTZ-JKFIT
	 Reference Energy          =    -650.1399390096354409 [Eh]
	 Singles Energy            =      -0.0000000000000002 [Eh]
	 Same-Spin Energy          =      -0.6722191991280781 [Eh]
	 Opposite-Spin Energy      =      -2.0231329471565074 [Eh]
	 Correlation Energy        =      -2.6953521462845855 [Eh]
	 Total Energy              =    -652.8352911559200038 [Eh]

	 ================> DF-SCS-MP2 Energies <==================
	-----------------------------------------------------------
	 SCS Same-Spin Scale       =       0.3333333333333333 [-]
	 SCS Opposite-Spin Scale   =       1.2000000000000000 [-]
	 SCS Same-Spin Energy      =      -0.2240730663760260 [Eh]
	 SCS Opposite-Spin Energy  =      -2.4277595365878089 [Eh]
	 SCS Correlation Energy    =      -2.6518326029638351 [Eh]
	 SCS Total Energy          =    -652.7917716125992911 [Eh]
	-----------------------------------------------------------

  -Total Gradient:
     Atom            X                  Y                   Z
    ------   -----------------  -----------------  -----------------
       1        0.000957832760     0.001754334267     0.000085252523
       2       -0.000044550473    -0.000079039842     0.000004280639
       3       -0.000720653851    -0.001844152674     0.000386381945
       4       -0.000019500968     0.000002223922     0.000003316652
       5       -0.000057790061    -0.000055095555     0.000013789735
       6       -0.000002654901    -0.000013982027     0.000006865167
       7       -0.000002666970    -0.000016521119    -0.000023171437
       8       -0.001817664082    -0.003658791632     0.000076610689
       9        0.001610058320     0.003756634507    -0.000525472081
      10        0.000156996392     0.000212878139    -0.000007886405
      11       -0.000011029052    -0.000024831751    -0.000031695398
      12        0.000005585815     0.000004841289     0.000015702533
      13       -0.000061425419    -0.000075464800     0.000000961557
      14        0.000000563653     0.000004910777     0.000017929446
      15       -0.000001868778     0.000002158677    -0.000003353947
      16       -0.000011916101    -0.000001075795     0.000006690799
      17        0.000005725561     0.000016376427    -0.000010952208
      18        0.000012102176     0.000005376852    -0.000018260748
      19       -0.000001153240     0.000001489654     0.000002012612
      20        0.000002307202     0.000006544706    -0.000000276257
      21        0.000000078371     0.000004314757     0.000002898576
      22        0.000001623638    -0.000003128777    -0.000001624375

  **** Optimization is complete! (in 12 steps) ****
    Final optimized geometry and variables:
    Molecular point group: c1

    Geometry (in Angstrom), charge = 0, multiplicity = 1:

    C           -1.364424376593     0.736095167905    -0.754933657345
    C           -2.423242821288     1.330581999087    -0.155205468121
    C            0.761165505586    -0.693710127468    -2.107028887144
    C            2.038733311098    -0.798951882533    -0.083734977143
    C           -1.475731731503     0.768916422967     2.020411637734
    C            1.810765982964    -1.231520766726    -2.778068361145
    C            3.068950916354    -1.325723436849    -0.794429416204
    C           -0.288590786320     0.129095464393    -0.032539858711
    C            0.804682660288    -0.425431882660    -0.702707555970
    C           -2.559693494897     1.384252349954     1.287921551259
    C           -0.428594832470     0.204541983071     1.383040341690
    N            2.963497826875    -1.541023189622    -2.130919043094
    O           -3.527273620959     1.914191392853     1.849717095769
    F            0.526374619042    -0.376193874561     2.153837034335
    H           -1.315868548552     0.761820248013    -1.831908144973
    H           -3.198997099178     1.799742685597    -0.741057030926
    H           -0.129471457546    -0.500440466304    -2.678470168661
    H            2.191881687952    -0.647161698577     0.967343802866
    H           -1.518147645121     0.755987897020     3.097447310748
    H            1.776686468416    -1.447496156419    -3.833107133813
    H            4.008843400437    -1.589257998717    -0.338237801810
    H            3.733496370561    -1.940156643105    -2.638258541082

*** Psi4 exiting successfully. Buy a developer a beer!
