                               Psi4 1.1 release

  ==> Input File <==

--------------------------------------------------------------------------

memory 1000 mb

molecule butane {
  symmetry C1
  0 1
  H      1.604   0.760   -8.260
  H      1.745   2.388   -8.880
  H      2.043   1.024   -9.930
  C      2.142   1.395   -8.932
  H      4.169   2.051   -9.210
  H      3.731   1.788   -7.539
  C      3.631   1.416   -8.537
  H      3.665   -0.647   -7.940
  H      4.104   -0.384   -9.610
  C      4.203   -0.012   -8.612
  H      6.131   -0.941   -8.435
  H      5.781   0.212   -7.172
  H      6.197   0.771   -8.773
  C      5.691   0.009   -8.218
  units Angstrom
}

dih_string = "7 10 14 13 310"
set optking fixed_dihedral = $dih_string

optimize('MP2/aug-cc-pvtz')
--------------------------------------------------------------------------

    Molecular point group: c1
  Charge       = 0
  Multiplicity = 1
  Basis Set: AUG-CC-PVTZ
    Blend: AUG-CC-PVTZ
  Basis Set: (AUG-CC-PVTZ AUX)
    Blend: AUG-CC-PVTZ-JKFIT
  @DF-RHF Final Energy:  -157.35242173024943
    Total Energy =                       -157.3524217302494321
  Basis Set: (AUG-CC-PVTZ AUX)
    Blend: AUG-CC-PVTZ-RI
    Molecular point group: c1
  Basis Set: AUG-CC-PVTZ
    Blend: AUG-CC-PVTZ
  Basis Set: (AUG-CC-PVTZ AUX)
    Blend: AUG-CC-PVTZ-JKFIT
  Basis Set: (AUG-CC-PVTZ AUX)
    Blend: AUG-CC-PVTZ-JKFIT
	 Reference Energy          =    -157.3524217302494321 [Eh]
	 Singles Energy            =      -0.0000000000000000 [Eh]
	 Same-Spin Energy          =      -0.1653754823072335 [Eh]
	 Opposite-Spin Energy      =      -0.6386985201273822 [Eh]
	 Correlation Energy        =      -0.8040740024346157 [Eh]
	 Total Energy              =    -158.1564957326840499 [Eh]
	 SCS Total Energy          =    -158.1739851151713765 [Eh]
  @DF-RHF Final Energy:  -157.35508006549895
    Total Energy =                       -157.3550800654989530
  @DF-RHF Final Energy:  -157.35587623699422
    Total Energy =                       -157.3558762369942201
  @DF-RHF Final Energy:  -157.35611187333905
    Total Energy =                       -157.3561118733390458
  Charge       = 0
  Multiplicity = 1
  Basis Set: AUG-CC-PVTZ
    Blend: AUG-CC-PVTZ
  Basis Set: (AUG-CC-PVTZ AUX)
    Blend: AUG-CC-PVTZ-JKFIT

    Orbital Energies (a.u.)
    -----------------------

    Doubly Occupied:

       1A    -11.211425     2A    -11.210776     3A    -11.206074
       4A    -11.206028     5A     -1.074498     6A     -0.982178
       7A     -0.860923     8A     -0.788029     9A     -0.641024
      10A     -0.586051    11A     -0.577570    12A     -0.567656
      13A     -0.514687    14A     -0.493883    15A     -0.470000
      16A     -0.461083    17A     -0.456911

  @DF-RHF Final Energy:  -157.35610410225786

   => Energetics <=

    Nuclear Repulsion Energy =            131.5598837714123874
    One-Electron Energy =                -471.2143868528353323
    Two-Electron Energy =                 182.2983989791650856
    DFT Exchange-Correlation Energy =       0.0000000000000000
    Empirical Dispersion Energy =           0.0000000000000000
    PCM Polarization Energy =               0.0000000000000000
    EFP Energy =                            0.0000000000000000
    Total Energy =                       -157.3561041022578593
  Basis Set: (AUG-CC-PVTZ AUX)
    Blend: AUG-CC-PVTZ-RI
    Molecular point group: c1
  Basis Set: AUG-CC-PVTZ
    Blend: AUG-CC-PVTZ
  Basis Set: (AUG-CC-PVTZ AUX)
    Blend: AUG-CC-PVTZ-JKFIT
  Basis Set: (AUG-CC-PVTZ AUX)
    Blend: AUG-CC-PVTZ-JKFIT
	 Reference Energy          =    -157.3561041022578593 [Eh]
	 Singles Energy            =      -0.0000000000000000 [Eh]
	 Same-Spin Energy          =      -0.1654666174671099 [Eh]
	 Opposite-Spin Energy      =      -0.6392006643470955 [Eh]
	 Correlation Energy        =      -0.8046672818142054 [Eh]
	 Total Energy              =    -158.1607713840720635 [Eh]

	 ================> DF-SCS-MP2 Energies <==================
	-----------------------------------------------------------
	 SCS Same-Spin Scale       =       0.3333333333333333 [-]
	 SCS Opposite-Spin Scale   =       1.2000000000000000 [-]
	 SCS Same-Spin Energy      =      -0.0551555391557033 [Eh]
	 SCS Opposite-Spin Energy  =      -0.7670407972165146 [Eh]
	 SCS Correlation Energy    =      -0.8221963363722179 [Eh]
	 SCS Total Energy          =    -158.1783004386300888 [Eh]
	-----------------------------------------------------------

  -Total Gradient:
     Atom            X                  Y                   Z
    ------   -----------------  -----------------  -----------------
       1       -0.000039488050    -0.000030576169     0.000026547763
       2       -0.000014087990     0.000041949516     0.000007769877
       3       -0.000019411444    -0.000016981474    -0.000050237726
       4        0.000138343915    -0.000039709090     0.000025694761
       5       -0.000001194893    -0.000008530869    -0.000009736695
       6       -0.000001214500    -0.000003156395     0.000036730188
       7        0.000273885663     0.000182475417    -0.001035357677
       8       -0.000025244749     0.000007256104     0.000053664920
       9        0.000009189844    -0.000008609077     0.000005074155
      10       -0.000438568667     0.000023608383     0.001598581431
      11        0.000030555515    -0.000069060679    -0.000031320072
      12        0.000011805442    -0.000014994167     0.000020900784
      13       -0.000248341619     0.000994498494     0.001042489526
      14        0.000323771536    -0.001058169997    -0.001690801233

  **** Optimization is complete! (in 5 steps) ****
    Final optimized geometry and variables:
    Molecular point group: c1

    Geometry (in Angstrom), charge = 0, multiplicity = 1:

    H           -2.345258100418     0.064479652492     0.330899374517
    H           -2.198243152381     1.698216303063    -0.307040933117
    H           -1.918880380690     0.313068150392    -1.356396608035
    C           -1.775692284900     0.696932508635    -0.347767390284
    H            0.246569342276     1.352737885354    -0.649268984500
    H           -0.176765797256     1.098936699780     1.028081153052
    C           -0.304901749386     0.693645428077     0.022849056611
    H           -0.255873840420    -1.364453728645     0.611302140511
    H            0.200167957514    -1.078473720636    -1.051674884633
    C            0.308122067736    -0.692063174694    -0.036832924979
    H            2.240942904315    -1.661673271267     0.169272651362
    H            1.882379205204    -0.478521732044     1.421190207270
    H            2.322483189951     0.065398473580    -0.185348145194
    C            1.772680138850    -0.699330656185     0.360826077689

*** Psi4 exiting successfully. Buy a developer a beer!
