                               Psi4 1.1 release

  ==> Input File <==

--------------------------------------------------------------------------

memory 5 Gb

molecule phepyrFOH_cation {
  symmetry C1
  1 1
  C      1.885   -1.036   -0.112
  C      0.807   -0.463   0.561
  C      4.830   -1.443   -0.930
  C      4.321   -3.578   0.063
  C      1.800   -1.079   2.676
  C      5.894   -2.040   -1.592
  C      5.398   -4.120   -0.624
  C      2.921   -1.631   0.608
  C      4.038   -2.225   -0.095
  C      0.764   -0.484   1.955
  C      2.878   -1.652   2.002
  N      6.144   -3.345   -1.422
  O      -0.289   0.076   2.612
  F      3.866   -2.220   2.709
  H      1.904   -1.012   -1.199
  H      0.002   -0.002   -0.006
  H      4.632   -0.385   -1.072
  H      3.719   -4.212   0.708
  H      1.772   -1.099   3.762
  H      6.561   -1.511   -2.259
  H      5.691   -5.159   -0.561
  H      6.930   -3.764   -1.918
  H      0.027   0.613   3.356
  units Angstrom
}

dih_string = "2 10 13 23 225"
set optking fixed_dihedral = $dih_string

optimize('MP2/aug-cc-PVTZ')
--------------------------------------------------------------------------

    Molecular point group: c1
  Charge       = 1
  Multiplicity = 1
  Basis Set: AUG-CC-PVTZ
    Blend: AUG-CC-PVTZ
  Basis Set: (AUG-CC-PVTZ AUX)
    Blend: AUG-CC-PVTZ-JKFIT
  @DF-RHF Final Energy:  -650.55696793190077
    Total Energy =                       -650.5569679319007719
  Basis Set: (AUG-CC-PVTZ AUX)
    Blend: AUG-CC-PVTZ-RI
    Molecular point group: c1
  Basis Set: AUG-CC-PVTZ
    Blend: AUG-CC-PVTZ
  Basis Set: (AUG-CC-PVTZ AUX)
    Blend: AUG-CC-PVTZ-JKFIT
  Basis Set: (AUG-CC-PVTZ AUX)
    Blend: AUG-CC-PVTZ-JKFIT
	 Reference Energy          =    -650.5569679319007719 [Eh]
	 Singles Energy            =      -0.0000000000000004 [Eh]
	 Same-Spin Energy          =      -0.6689155776740259 [Eh]
	 Opposite-Spin Energy      =      -2.0136156162305276 [Eh]
	 Correlation Energy        =      -2.6825311939045542 [Eh]
	 Total Energy              =    -653.2394991258053096 [Eh]
	 SCS Total Energy          =    -653.1962785306020578 [Eh]
  @DF-RHF Final Energy:  -650.56208269052161
    Total Energy =                       -650.5620826905214926
  @DF-RHF Final Energy:  -650.56335457723947
    Total Energy =                       -650.5633545772395792
  @DF-RHF Final Energy:  -650.56376135939308
    Total Energy =                       -650.5637613593930837
  @DF-RHF Final Energy:  -650.56408926121674
    Total Energy =                       -650.5640892612168500
  @DF-RHF Final Energy:  -650.56449461229931
    Total Energy =                       -650.5644946122993133
  @DF-RHF Final Energy:  -650.56495262937437
    Total Energy =                       -650.5649526293743747
  @DF-RHF Final Energy:  -650.56528533749849
    Total Energy =                       -650.5652853374986080
  @DF-RHF Final Energy:  -650.56557643971144
    Total Energy =                       -650.5655764397113217
  @DF-RHF Final Energy:  -650.56579174615194
    Total Energy =                       -650.5657917461519446
  @DF-RHF Final Energy:  -650.56592182859492
    Total Energy =                       -650.5659218285948100
  @DF-RHF Final Energy:  -650.56596588875595
    Total Energy =                       -650.5659658887559544
  @DF-RHF Final Energy:  -650.56592542236626
    Total Energy =                       -650.5659254223662629
  @DF-RHF Final Energy:  -650.56597742906683
    Total Energy =                       -650.5659774290668338
  @DF-RHF Final Energy:  -650.56597092116328
    Total Energy =                       -650.5659709211631707
  @DF-RHF Final Energy:  -650.56596887914441
    Total Energy =                       -650.5659688791445205
  @DF-RHF Final Energy:  -650.56596745499269
    Total Energy =                       -650.5659674549926876
  Charge       = 1
  Multiplicity = 1
  Basis Set: AUG-CC-PVTZ
    Blend: AUG-CC-PVTZ
  Basis Set: (AUG-CC-PVTZ AUX)
    Blend: AUG-CC-PVTZ-JKFIT

    Orbital Energies (a.u.)
    -----------------------

    Doubly Occupied:

       1A    -26.446028     2A    -20.706180     3A    -15.832023
       4A    -11.482205     5A    -11.480373     6A    -11.473340
       7A    -11.455443     8A    -11.443193     9A    -11.413873
      10A    -11.410525    11A    -11.387612    12A    -11.384665
      13A    -11.361998    14A    -11.354495    15A     -1.766111
      16A     -1.528901    17A     -1.510014    18A     -1.324779
      19A     -1.276269    20A     -1.239862    21A     -1.170560
      22A     -1.160459    23A     -1.066945    24A     -1.064113
      25A     -0.994329    26A     -0.973652    27A     -0.961550
      28A     -0.898312    29A     -0.871775    30A     -0.865338
      31A     -0.853306    32A     -0.833671    33A     -0.819104
      34A     -0.809617    35A     -0.792817    36A     -0.774722
      37A     -0.765487    38A     -0.752107    39A     -0.739793
      40A     -0.722821    41A     -0.705874    42A     -0.680480
      43A     -0.662883    44A     -0.643608    45A     -0.626953
      46A     -0.577101    47A     -0.539525    48A     -0.478333
      49A     -0.452441

  @DF-RHF Final Energy:  -650.56597348021535

   => Energetics <=

    Nuclear Repulsion Energy =            830.9510516573080849
    One-Electron Energy =               -2521.9629221663922181
    Two-Electron Energy =                1040.4458970288687851
    DFT Exchange-Correlation Energy =       0.0000000000000000
    Empirical Dispersion Energy =           0.0000000000000000
    PCM Polarization Energy =               0.0000000000000000
    EFP Energy =                            0.0000000000000000
    Total Energy =                       -650.5659734802152343
  Basis Set: (AUG-CC-PVTZ AUX)
    Blend: AUG-CC-PVTZ-RI
    Molecular point group: c1
  Basis Set: AUG-CC-PVTZ
    Blend: AUG-CC-PVTZ
  Basis Set: (AUG-CC-PVTZ AUX)
    Blend: AUG-CC-PVTZ-JKFIT
  Basis Set: (AUG-CC-PVTZ AUX)
    Blend: AUG-CC-PVTZ-JKFIT
	 Reference Energy          =    -650.5659734802153480 [Eh]
	 Singles Energy            =      -0.0000000000000001 [Eh]
	 Same-Spin Energy          =      -0.6686608342452068 [Eh]
	 Opposite-Spin Energy      =      -2.0120840043779662 [Eh]
	 Correlation Energy        =      -2.6807448386231729 [Eh]
	 Total Energy              =    -653.2467183188384752 [Eh]

	 ================> DF-SCS-MP2 Energies <==================
	-----------------------------------------------------------
	 SCS Same-Spin Scale       =       0.3333333333333333 [-]
	 SCS Opposite-Spin Scale   =       1.2000000000000000 [-]
	 SCS Same-Spin Energy      =      -0.2228869447484023 [Eh]
	 SCS Opposite-Spin Energy  =      -2.4145008052535593 [Eh]
	 SCS Correlation Energy    =      -2.6373877500019614 [Eh]
	 SCS Total Energy          =    -653.2033612302172969 [Eh]
	-----------------------------------------------------------

  -Total Gradient:
     Atom            X                  Y                   Z
    ------   -----------------  -----------------  -----------------
       1        0.000007189177    -0.000010280546     0.000013262310
       2        0.002045057746     0.002826662016     0.000785383069
       3       -0.000013908922    -0.000018421367     0.000018194025
       4       -0.000004421135     0.000029902212    -0.000013763284
       5       -0.000028866557     0.000002878210    -0.000003158610
       6        0.000009224708    -0.000022227205    -0.000005983779
       7        0.000016527629     0.000006719781    -0.000019296236
       8        0.000007804742     0.000015154315     0.000011680078
       9        0.000014540727    -0.000015496886    -0.000014458086
      10       -0.002756404003    -0.003185909345    -0.001760260081
      11        0.000017480523     0.000021006624    -0.000017286552
      12       -0.000026872475     0.000017149073     0.000018519296
      13       -0.000429322155    -0.003925286160     0.003268929470
      14       -0.000015976834     0.000002608504     0.000000452046
      15       -0.000002031401     0.000000824712     0.000006782225
      16        0.000019751610     0.000016520311     0.000017890869
      17        0.000007028423    -0.000012874315     0.000002843037
      18        0.000006059061    -0.000002158169    -0.000005888684
      19       -0.000000142048    -0.000001374562    -0.000014229887
      20       -0.000005244390    -0.000004219214     0.000010444820
      21       -0.000004883825     0.000012621723    -0.000000836744
      22        0.000002704615     0.000000896770     0.000000822271
      23        0.001134704774     0.004245303520    -0.002300041573

  **** Optimization is complete! (in 18 steps) ****
    Final optimized geometry and variables:
    Molecular point group: c1

    Geometry (in Angstrom), charge = 1, multiplicity = 1:

    C           -1.135768689066     1.058034680103    -0.718756270572
    C           -2.184751838840     1.673750967538    -0.072811665088
    C            1.451798801343     0.198196481019    -1.827562965102
    C            1.323534424514    -1.702096270010    -0.384286424940
    C           -1.531678764901     0.612010489647     1.988183425976
    C            2.478467710852    -0.405729168996    -2.508716981301
    C            2.351233591198    -2.279226983431    -1.088413415484
    C           -0.257129479633     0.201339651896    -0.042762141143
    C            0.838931170072    -0.436137814008    -0.739392241340
    C           -2.391084210572     1.447330564983     1.285284968369
    C           -0.494357443975     0.008810199396     1.317503385045
    N            2.898293019537    -1.621258751351    -2.122745643051
    O           -3.450345029118     2.048481566998     1.873059278854
    F            0.341875620356    -0.770758205873     2.024615905910
    H           -1.010601974604     1.216843606440    -1.779013609723
    H           -2.863269542890     2.322473539858    -0.602417762647
    H            1.148050906217     1.186399887102    -2.131077996718
    H            0.887836910914    -2.253262001530     0.430234788508
    H           -1.664815239073     0.422354641702     3.041444480910
    H            2.988206325814     0.045750523962    -3.343312179173
    H            2.751717896065    -3.253410763154    -0.862954427975
    H            3.658257241808    -2.057154978424    -2.629402350617
    H           -3.198953796745     2.434600206683     2.718694685117

*** Psi4 exiting successfully. Buy a developer a beer!
