                               Psi4 1.1 release

  ==> Input File <==

--------------------------------------------------------------------------

memory 5 Gb

molecule phepyrOH_neutral {
  symmetry C1
  0 1
  C      1.885   -1.036   -0.112
  C      2.878   -1.652   2.002
  C      0.807   -0.463   0.561
  C      1.800   -1.079   2.676
  C      4.641   -1.551   -1.147
  C      4.519   -3.473   0.294
  C      5.710   -2.163   -1.782
  C      5.593   -3.998   -0.405
  C      2.921   -1.631   0.608
  C      4.040   -2.225   -0.090
  C      0.764   -0.484   1.955
  N      6.203   -3.373   -1.437
  O      -0.288   0.076   2.612
  H      1.904   -1.012   -1.199
  H      3.678   -2.112   2.578
  H      0.003   -0.001   -0.006
  H      1.772   -1.098   3.762
  H      4.296   -0.576   -1.475
  H      4.075   -4.028   1.114
  H      6.214   -1.678   -2.612
  H      6.004   -4.968   -0.145
  H      -0.175   -0.018   3.571
  units Angstrom
}

dih_string = "1 9 10 5 45"
set optking fixed_dihedral = $dih_string

optimize('MP2/aug-cc-PVTZ')
--------------------------------------------------------------------------

    Molecular point group: c1
  Charge       = 0
  Multiplicity = 1
  Basis Set: AUG-CC-PVTZ
    Blend: AUG-CC-PVTZ
  Basis Set: (AUG-CC-PVTZ AUX)
    Blend: AUG-CC-PVTZ-JKFIT
  @DF-RHF Final Energy:  -551.28700312973638
    Total Energy =                       -551.2870031297363766
  Basis Set: (AUG-CC-PVTZ AUX)
    Blend: AUG-CC-PVTZ-RI
    Molecular point group: c1
  Basis Set: AUG-CC-PVTZ
    Blend: AUG-CC-PVTZ
  Basis Set: (AUG-CC-PVTZ AUX)
    Blend: AUG-CC-PVTZ-JKFIT
  Basis Set: (AUG-CC-PVTZ AUX)
    Blend: AUG-CC-PVTZ-JKFIT
	 Reference Energy          =    -551.2870031297363766 [Eh]
	 Singles Energy            =      -0.0000000000000002 [Eh]
	 Same-Spin Energy          =      -0.6048160906532157 [Eh]
	 Opposite-Spin Energy      =      -1.8304483454959080 [Eh]
	 Correlation Energy        =      -2.4352644361491236 [Eh]
	 Total Energy              =    -553.7222675658855451 [Eh]
	 SCS Total Energy          =    -553.6851465078825640 [Eh]
  @DF-RHF Final Energy:  -551.29239114212305
    Total Energy =                       -551.2923911421230514
  @DF-RHF Final Energy:  -551.29336996937832
    Total Energy =                       -551.2933699693783183
  @DF-RHF Final Energy:  -551.29329378754414
    Total Energy =                       -551.2932937875441439
  @DF-RHF Final Energy:  -551.29325556846561
    Total Energy =                       -551.2932555684656108
  Charge       = 0
  Multiplicity = 1
  Basis Set: AUG-CC-PVTZ
    Blend: AUG-CC-PVTZ
  Basis Set: (AUG-CC-PVTZ AUX)
    Blend: AUG-CC-PVTZ-JKFIT

    Orbital Energies (a.u.)
    -----------------------

    Doubly Occupied:

       1A    -20.601587     2A    -15.560153     3A    -11.312950
       4A    -11.271260     5A    -11.271145     6A    -11.263899
       7A    -11.252626     8A    -11.250491     9A    -11.245354
      10A    -11.243691    11A    -11.237208    12A    -11.235206
      13A    -11.235060    14A     -1.418815    15A     -1.257497
      16A     -1.175177    17A     -1.105248    18A     -1.038395
      19A     -1.030496    20A     -1.012867    21A     -0.881350
      22A     -0.870938    23A     -0.845776    24A     -0.812413
      25A     -0.748543    26A     -0.725864    27A     -0.684391
      28A     -0.660472    29A     -0.657760    30A     -0.636357
      31A     -0.615074    32A     -0.605191    33A     -0.603201
      34A     -0.594071    35A     -0.581414    36A     -0.543224
      37A     -0.532955    38A     -0.522793    39A     -0.503559
      40A     -0.494561    41A     -0.416627    42A     -0.393218
      43A     -0.356252    44A     -0.347585    45A     -0.312174

  @DF-RHF Final Energy:  -551.29327663356139

   => Energetics <=

    Nuclear Repulsion Energy =            697.8679114600691946
    One-Electron Energy =               -2132.3926005962553063
    Two-Electron Energy =                 883.2314125026248348
    DFT Exchange-Correlation Energy =       0.0000000000000000
    Empirical Dispersion Energy =           0.0000000000000000
    PCM Polarization Energy =               0.0000000000000000
    EFP Energy =                            0.0000000000000000
    Total Energy =                       -551.2932766335613906
  Basis Set: (AUG-CC-PVTZ AUX)
    Blend: AUG-CC-PVTZ-RI
    Molecular point group: c1
  Basis Set: AUG-CC-PVTZ
    Blend: AUG-CC-PVTZ
  Basis Set: (AUG-CC-PVTZ AUX)
    Blend: AUG-CC-PVTZ-JKFIT
  Basis Set: (AUG-CC-PVTZ AUX)
    Blend: AUG-CC-PVTZ-JKFIT
	 Reference Energy          =    -551.2932766335613906 [Eh]
	 Singles Energy            =      -0.0000000000000003 [Eh]
	 Same-Spin Energy          =      -0.6039749565047424 [Eh]
	 Opposite-Spin Energy      =      -1.8282156686854640 [Eh]
	 Correlation Energy        =      -2.4321906251902070 [Eh]
	 Total Energy              =    -553.7254672587515643 [Eh]

	 ================> DF-SCS-MP2 Energies <==================
	-----------------------------------------------------------
	 SCS Same-Spin Scale       =       0.3333333333333333 [-]
	 SCS Opposite-Spin Scale   =       1.2000000000000000 [-]
	 SCS Same-Spin Energy      =      -0.2013249855015808 [Eh]
	 SCS Opposite-Spin Energy  =      -2.1938588024225569 [Eh]
	 SCS Correlation Energy    =      -2.3951837879241382 [Eh]
	 SCS Total Energy          =    -553.6884604214855017 [Eh]
	-----------------------------------------------------------

  -Total Gradient:
     Atom            X                  Y                   Z
    ------   -----------------  -----------------  -----------------
       1       -0.000750621460    -0.001480730410    -0.000017700037
       2       -0.000034265717    -0.000009876140     0.000057072815
       3       -0.000066561637     0.000029942837     0.000065489337
       4        0.000061428018    -0.000026338987    -0.000023149083
       5        0.001061474340     0.000710915148     0.001033263437
       6        0.000039850464    -0.000009949669     0.000014484086
       7        0.000108117445     0.000024056027     0.000055923561
       8       -0.000051378685    -0.000065834595    -0.000077409165
       9        0.001694663170     0.002569637312     0.000550655349
      10       -0.001982886528    -0.001805771220    -0.001628536687
      11       -0.000003610302     0.000008339776    -0.000028464569
      12       -0.000053481477     0.000036320095     0.000021752068
      13       -0.000013624464    -0.000000534795     0.000008962760
      14       -0.000012843787     0.000001946466     0.000016830927
      15       -0.000014093222     0.000011239427    -0.000016064033
      16        0.000027345628    -0.000013392118    -0.000017126211
      17       -0.000009785682     0.000007547445    -0.000006608281
      18       -0.000002850063    -0.000017908082     0.000007898042
      19        0.000004999765     0.000023073209    -0.000007882728
      20       -0.000028492597    -0.000011352582    -0.000021737553
      21        0.000020636386     0.000018632773     0.000027370490
      22        0.000005980404     0.000000038076    -0.000015024521

  **** Optimization is complete! (in 6 steps) ****
    Final optimized geometry and variables:
    Molecular point group: c1

    Geometry (in Angstrom), charge = 0, multiplicity = 1:

    C           -1.263769554419     0.740567493284    -0.555108860561
    C           -0.286294901782     0.089262968030     1.529480811462
    C           -2.335272717142     1.304541885550     0.114200947011
    C           -1.353094152878     0.656462402310     2.208151680216
    C            1.516390413544     0.159341180307    -1.644852418116
    C            1.414574442720    -1.718438623780    -0.200980435324
    C            2.584240636351    -0.451043163178    -2.283190518629
    C            2.487951670965    -2.250336875174    -0.897589361656
    C           -0.219723033820     0.130436544066     0.139276719694
    C            0.898015666887    -0.481946053450    -0.575823729448
    C           -2.381214557200     1.265331853976     1.500881823552
    N            3.077429764857    -1.639883145352    -1.928294736953
    O           -3.458179468192     1.839000357271     2.105984378471
    H           -1.245422638946     0.756286776244    -1.634915470649
    H            0.517029561771    -0.367083953594     2.088728097181
    H           -3.147435636206     1.769158870061    -0.422800868087
    H           -1.382740530783     0.629690066799     3.288714626711
    H            1.178449264236     1.133394303800    -1.965547066693
    H            0.969600710082    -2.271432087291     0.612607255740
    H            3.072635612822     0.040380556394    -3.113149996978
    H            2.891142924654    -3.214022695207    -0.618991026926
    H           -3.371045938006     1.740526923409     3.058886204648

*** Psi4 exiting successfully. Buy a developer a beer!
