                              Psi4 1.0.0 Driver

  ==> Input File <==

--------------------------------------------------------------------------

memory 1000 mb

molecule butane {
  symmetry C1
  0 1
  H      1.604   0.760   -8.260
  H      1.745   2.388   -8.880
  H      2.043   1.024   -9.930
  C      2.142   1.395   -8.932
  H      4.169   2.051   -9.210
  H      3.731   1.788   -7.539
  C      3.631   1.416   -8.537
  H      3.929   -0.552   -7.731
  H      3.808   -0.510   -9.472
  C      4.203   -0.012   -8.612
  H      6.134   -0.938   -8.769
  H      6.133   0.552   -7.857
  H      6.013   0.594   -9.599
  C      5.737   0.054   -8.717
  units Angstrom
}

dih_string = "4 7 10 14 160"
set optking fixed_dihedral = $dih_string

optimize('MP2/6-31G(d)')
--------------------------------------------------------------------------

    Molecular point group: c1
  Charge       = 0
  Multiplicity = 1
  Basis Set: 6-31G(D)
  Basis Set:
  @DF-RHF Final Energy:  -157.29255622179369
    Total Energy =                       -157.2925562217937738
  Basis Set:
    Molecular point group: c1
  Basis Set: 6-31G(D)
  Basis Set:
  Basis Set:
	 Reference Energy          =    -157.2925562217936886 [Eh]
	 Singles Energy            =      -0.0000000000000000 [Eh]
	 Same-Spin Energy          =      -0.1243697764673530 [Eh]
	 Opposite-Spin Energy      =      -0.4201811811208359 [Eh]
	 Correlation Energy        =      -0.5445509575881889 [Eh]
	 Total Energy              =    -157.8371071793818885 [Eh]
	 SCS Total Energy          =    -157.8382302312944887 [Eh]
  Basis Set: 6-31G(D)
  Basis Set:
  @DF-RHF Final Energy:  -157.29545779535508
    Total Energy =                       -157.2954577953550199
  Basis Set:
  Basis Set: 6-31G(D)
  Basis Set:
  @DF-RHF Final Energy:  -157.29625402568976
    Total Energy =                       -157.2962540256897057
  @DF-RHF Final Energy:  -157.29651211554511
    Total Energy =                       -157.2965121155451129
  @DF-RHF Final Energy:  -157.29656832024835
    Total Energy =                       -157.2965683202483831
  @DF-RHF Final Energy:  -157.29658193538444
    Total Energy =                       -157.2965819353843244
  @DF-RHF Final Energy:  -157.29645639874565
    Total Energy =                       -157.2964563987454767
  @DF-RHF Final Energy:  -157.29654972551791
    Total Energy =                       -157.2965497255177070
  @DF-RHF Final Energy:  -157.29655449336857
    Total Energy =                       -157.2965544933684896
  **** Optimization is complete! (in 9 steps) ****
    Final optimized geometry and variables:
  @DF-RHF Final Energy:  -157.29654692299206
    Total Energy =                       -157.2965469229920927
	 Singles Energy            =      -0.0000000000000000 [Eh]
	 Same-Spin Energy          =      -0.1244231830877075 [Eh]
	 Opposite-Spin Energy      =      -0.4222410141950043 [Eh]
	 Correlation Energy        =      -0.5466641972827118 [Eh]
	 Total Energy              =    -157.8432111202747876 [Eh]
	 SCS Total Energy          =    -157.8447105343886392 [Eh]
  Charge       = 0
  Multiplicity = 1
  Basis Set: 6-31G(D)
  Basis Set:

    Orbital Energies (a.u.)
    -----------------------

    Doubly Occupied:

       1A    -11.215738     2A    -11.215144     3A    -11.210446
       4A    -11.210441     5A     -1.069913     6A     -0.979728
       7A     -0.859288     8A     -0.786359     9A     -0.636689
      10A     -0.583213    11A     -0.578766    12A     -0.563610
      13A     -0.512972    14A     -0.496402    15A     -0.467090
      16A     -0.459172    17A     -0.455641

  @DF-RHF Final Energy:  -157.29653747093010

   => Energetics <=

    Nuclear Repulsion Energy =            130.7904879993715213
    One-Electron Energy =                -469.5728279601186159
    Two-Electron Energy =                 181.4858024898170470
    DFT Exchange-Correlation Energy =       0.0000000000000000
    Empirical Dispersion Energy =           0.0000000000000000
    PCM Polarization Energy =               0.0000000000000000
    EFP Energy =                            0.0000000000000000
    Total Energy =                       -157.2965374709300477
  Basis Set:
    Molecular point group: c1
  Basis Set: 6-31G(D)
  Basis Set:
  Basis Set:
	 Reference Energy          =    -157.2965374709301045 [Eh]
	 Singles Energy            =      -0.0000000000000000 [Eh]
	 Same-Spin Energy          =      -0.1244124572739892 [Eh]
	 Opposite-Spin Energy      =      -0.4222644818385381 [Eh]
	 Correlation Energy        =      -0.5466769391125272 [Eh]
	 Total Energy              =    -157.8432144100426342 [Eh]

	 ================> DF-SCS-MP2 Energies <==================
	-----------------------------------------------------------
	 SCS Same-Spin Scale       =       0.3333333333333333 [-]
	 SCS Opposite-Spin Scale   =       1.2000000000000000 [-]
	 SCS Same-Spin Energy      =      -0.0414708190913297 [Eh]
	 SCS Opposite-Spin Energy  =      -0.5067173782062457 [Eh]
	 SCS Correlation Energy    =      -0.5481881972975755 [Eh]
	 SCS Total Energy          =    -157.8447256682276816 [Eh]
	-----------------------------------------------------------

  -Total Gradient:
     Atom            X                  Y                   Z
    ------   -----------------  -----------------  -----------------
       1       -0.000086146740    -0.000112112859     0.000126042887
       2       -0.000072418498     0.000195814091     0.000001212585
       3       -0.000070847902    -0.000074937982    -0.000205624668
       4        0.000967256575     0.000392508955    -0.002448460230
       5        0.000015150086     0.000034176564     0.000057517293
       6       -0.000007088572     0.000009781081     0.000096304415
       7       -0.001089747172    -0.000516276358     0.002336601470
       8       -0.000011283650    -0.000027039356     0.000097898643
       9       -0.000026892405    -0.000046557171     0.000041043724
      10        0.000634983305     0.000088681013     0.002545507170
      11        0.000077888860    -0.000198248335    -0.000019710815
      12        0.000060375808     0.000085974156     0.000157404287
      13        0.000102195171     0.000104530736    -0.000167337558
      14       -0.000493424863     0.000063705464    -0.002618399205

    Final optimized geometry and variables:
    Molecular point group: c1

    Geometry (in Angstrom), charge = 0, multiplicity = 1:

    H           -2.378374220233     0.021995715339     0.434435676919
    H           -2.237928333257     1.685515883985    -0.148671536237
    H           -1.937929319546     0.332523118838    -1.248891036029
    C           -1.804013509695     0.683973677266    -0.221512027141
    H            0.212383490519     1.351072689233    -0.527563616615
    H           -0.191203605444     1.103398781907     1.160764429856
    C           -0.327075608844     0.684311899489     0.156787494491
    H           -0.004958693238    -1.291904860198     0.965593940406
    H           -0.091322627155    -1.234722914532    -0.784842916723
    C            0.304143609289    -0.706342918504     0.091721317738
    H            2.254587754276    -1.669528504672    -0.031690996610
    H            2.260041482563    -0.135732993606     0.848353998849
    H            2.137528463115    -0.140689760604    -0.914872515977
    C            1.825028593151    -0.663784219617    -0.006220088056

*** Psi4 exiting successfully. Buy a developer a beer!
