                               Psi4 1.1 release

  ==> Input File <==

--------------------------------------------------------------------------

memory 5 Gb

molecule phepyrOH_cation {
  symmetry C1
  1 1
  C      1.885   -1.036   -0.112
  C      2.878   -1.652   2.002
  C      0.807   -0.463   0.561
  C      1.800   -1.079   2.676
  C      3.859   -2.773   -1.356
  C      5.298   -2.251   0.504
  C      4.950   -3.337   -2.003
  C      6.352   -2.828   -0.190
  C      2.921   -1.631   0.608
  C      4.040   -2.225   -0.090
  C      0.764   -0.484   1.955
  N      6.151   -3.348   -1.408
  O      -0.288   0.076   2.612
  H      1.904   -1.012   -1.199
  H      3.678   -2.112   2.578
  H      0.003   -0.001   -0.006
  H      1.772   -1.098   3.762
  H      2.889   -2.766   -1.844
  H      5.468   -1.832   1.491
  H      4.903   -3.784   -2.986
  H      7.362   -2.892   0.193
  H      6.939   -3.769   -1.900
  H      -0.175   -0.018   3.571
  units Angstrom
}

dih_string = "1 9 10 5 330"
set optking fixed_dihedral = $dih_string

optimize('MP2/aug-cc-PVTZ')
--------------------------------------------------------------------------

    Molecular point group: c1
  Charge       = 1
  Multiplicity = 1
  Basis Set: AUG-CC-PVTZ
    Blend: AUG-CC-PVTZ
  Basis Set: (AUG-CC-PVTZ AUX)
    Blend: AUG-CC-PVTZ-JKFIT
  @DF-RHF Final Energy:  -551.67602887954047
    Total Energy =                       -551.6760288795404676
  Basis Set: (AUG-CC-PVTZ AUX)
    Blend: AUG-CC-PVTZ-RI
    Molecular point group: c1
  Basis Set: AUG-CC-PVTZ
    Blend: AUG-CC-PVTZ
  Basis Set: (AUG-CC-PVTZ AUX)
    Blend: AUG-CC-PVTZ-JKFIT
  Basis Set: (AUG-CC-PVTZ AUX)
    Blend: AUG-CC-PVTZ-JKFIT
	 Reference Energy          =    -551.6760288795404676 [Eh]
	 Singles Energy            =      -0.0000000000000002 [Eh]
	 Same-Spin Energy          =      -0.5966681982830683 [Eh]
	 Opposite-Spin Energy      =      -1.8256349798408626 [Eh]
	 Correlation Energy        =      -2.4223031781239310 [Eh]
	 Total Energy              =    -554.0983320576643791 [Eh]
	 SCS Total Energy          =    -554.0656802547772486 [Eh]
  @DF-RHF Final Energy:  -551.68159501356001
    Total Energy =                       -551.6815950135600133
  @DF-RHF Final Energy:  -551.68297065409774
    Total Energy =                       -551.6829706540977440
  @DF-RHF Final Energy:  -551.68295272838554
    Total Energy =                       -551.6829527283855441
  Charge       = 1
  Multiplicity = 1
  Basis Set: AUG-CC-PVTZ
    Blend: AUG-CC-PVTZ
  Basis Set: (AUG-CC-PVTZ AUX)
    Blend: AUG-CC-PVTZ-JKFIT

    Orbital Energies (a.u.)
    -----------------------

    Doubly Occupied:

       1A    -20.708986     2A    -15.826702     3A    -11.478778
       4A    -11.478585     5A    -11.448801     6A    -11.435703
       7A    -11.408638     8A    -11.408339     9A    -11.380276
      10A    -11.376743    11A    -11.372140    12A    -11.355779
      13A    -11.348998    14A     -1.532207    15A     -1.505659
      16A     -1.318332    17A     -1.266459    18A     -1.236782
      19A     -1.157235    20A     -1.156428    21A     -1.061664
      22A     -1.057490    23A     -0.979933    24A     -0.961075
      25A     -0.953975    26A     -0.873300    27A     -0.861643
      28A     -0.855401    29A     -0.819664    30A     -0.799780
      31A     -0.784127    32A     -0.770550    33A     -0.758205
      34A     -0.731530    35A     -0.723324    36A     -0.712768
      37A     -0.702815    38A     -0.687418    39A     -0.662245
      40A     -0.637690    41A     -0.619478    42A     -0.569161
      43A     -0.538409    44A     -0.474443    45A     -0.436333

  @DF-RHF Final Energy:  -551.68295641415261

   => Energetics <=

    Nuclear Repulsion Energy =            713.6864169665871032
    One-Electron Energy =               -2150.2707614500523050
    Two-Electron Energy =                 884.9013880693125884
    DFT Exchange-Correlation Energy =       0.0000000000000000
    Empirical Dispersion Energy =           0.0000000000000000
    PCM Polarization Energy =               0.0000000000000000
    EFP Energy =                            0.0000000000000000
    Total Energy =                       -551.6829564141526134
  Basis Set: (AUG-CC-PVTZ AUX)
    Blend: AUG-CC-PVTZ-RI
    Molecular point group: c1
  Basis Set: AUG-CC-PVTZ
    Blend: AUG-CC-PVTZ
  Basis Set: (AUG-CC-PVTZ AUX)
    Blend: AUG-CC-PVTZ-JKFIT
  Basis Set: (AUG-CC-PVTZ AUX)
    Blend: AUG-CC-PVTZ-JKFIT
	 Reference Energy          =    -551.6829564141526134 [Eh]
	 Singles Energy            =      -0.0000000000000010 [Eh]
	 Same-Spin Energy          =      -0.5957809017199274 [Eh]
	 Opposite-Spin Energy      =      -1.8234703732103068 [Eh]
	 Correlation Energy        =      -2.4192512749302351 [Eh]
	 Total Energy              =    -554.1022076890828885 [Eh]

	 ================> DF-SCS-MP2 Energies <==================
	-----------------------------------------------------------
	 SCS Same-Spin Scale       =       0.3333333333333333 [-]
	 SCS Opposite-Spin Scale   =       1.2000000000000000 [-]
	 SCS Same-Spin Energy      =      -0.1985936339066424 [Eh]
	 SCS Opposite-Spin Energy  =      -2.1881644478523681 [Eh]
	 SCS Correlation Energy    =      -2.3867580817590115 [Eh]
	 SCS Total Energy          =    -554.0697144959116258 [Eh]
	-----------------------------------------------------------

  -Total Gradient:
     Atom            X                  Y                   Z
    ------   -----------------  -----------------  -----------------
       1        0.000547922920     0.000692524325     0.000065059978
       2       -0.000011725101    -0.000041227361     0.000079019952
       3       -0.000151878623     0.000016767663     0.000069794180
       4        0.000106147027     0.000001708699    -0.000024544920
       5       -0.000113286704    -0.000775235206     0.000343191239
       6        0.000073877724    -0.000041380101    -0.000029932240
       7       -0.000069539683    -0.000035342484    -0.000029842728
       8        0.000040315641     0.000068345329     0.000085946714
       9       -0.000780542134    -0.001449983114     0.000030559569
      10        0.000406532456     0.001525715803    -0.000508982947
      11        0.000024048805     0.000031457750     0.000004119754
      12       -0.000010991360    -0.000005767566    -0.000015559735
      13       -0.000009003500    -0.000014486133    -0.000004498602
      14       -0.000008505266     0.000016081982     0.000002889402
      15       -0.000026097302     0.000004364723    -0.000008952546
      16        0.000044582744    -0.000023822110    -0.000020360431
      17       -0.000022484463     0.000000948377    -0.000015258110
      18       -0.000000707141     0.000021035858     0.000020076375
      19       -0.000022053149    -0.000002386266    -0.000017848337
      20        0.000010135515     0.000013230816     0.000007114242
      21       -0.000012438537    -0.000011227422    -0.000009582143
      22       -0.000016213874     0.000006494022     0.000007950279
      23        0.000001903989     0.000002182417    -0.000030358934

  **** Optimization is complete! (in 5 steps) ****
    Final optimized geometry and variables:
    Molecular point group: c1

    Geometry (in Angstrom), charge = 1, multiplicity = 1:

    C           -1.293159610085     0.716637067974    -0.550585224618
    C           -0.284749953953     0.119447039071     1.550919942841
    C           -2.353036154421     1.290155104316     0.116171686544
    C           -1.353713513181     0.676144503762     2.222700590635
    C            0.727954111671    -1.018003906620    -1.827452641898
    C            2.157962419071    -0.513225864430     0.017678836713
    C            1.796836247057    -1.574223442882    -2.482455540037
    C            3.206617242163    -1.078462091381    -0.661851964864
    C           -0.240258124475     0.121376792370     0.153834140474
    C            0.876991475178    -0.462592765697    -0.549071278764
    C           -2.392895639974     1.269294818692     1.508812700734
    N            3.001217294589    -1.590338626311    -1.887049287479
    O           -3.460861416239     1.838114906770     2.091672518108
    H           -1.266083086355     0.772827060631    -1.628463304653
    H            0.493777121089    -0.363381827778     2.122263208583
    H           -3.156992010248     1.769122349446    -0.419939699264
    H           -1.387818737492     0.645425291768     3.302018566864
    H           -0.236471371009    -1.043044591504    -2.307393521730
    H            2.349133293246    -0.080147676163     0.985605506263
    H            1.730420520292    -2.020681236358    -3.460573973291
    H            4.210134306665    -1.130376075351    -0.273723108424
    H            3.782269488198    -2.003850101774    -2.379304066833
    H           -3.395473293849     1.777795417518     3.051351776889

*** Psi4 exiting successfully. Buy a developer a beer!
