                               Psi4 1.1 release

  ==> Input File <==

--------------------------------------------------------------------------

memory 5 Gb

molecule phepyrOH_anion {
  symmetry C1
  -1 1
  C      1.885   -1.036   -0.112
  C      2.878   -1.652   2.002
  C      0.807   -0.463   0.561
  C      1.800   -1.079   2.676
  C      4.442   -1.721   -1.322
  C      4.718   -3.303   0.469
  C      5.520   -2.325   -1.949
  C      5.783   -3.837   -0.239
  C      2.921   -1.631   0.608
  C      4.040   -2.226   -0.090
  C      0.764   -0.484   1.955
  N      6.203   -3.374   -1.437
  O      -0.227   0.042   2.574
  H      1.904   -1.011   -1.199
  H      3.678   -2.112   2.577
  H      0.011   -0.006   -0.025
  H      1.791   -1.108   3.764
  H      3.939   -0.881   -1.789
  H      4.432   -3.724   1.428
  H      5.874   -1.968   -2.911
  H      6.344   -4.678   0.153
  units Angstrom
}

dih_string = "1 9 10 5 30"
set optking fixed_dihedral = $dih_string

optimize('MP2/aug-cc-PVTZ')
--------------------------------------------------------------------------

    Molecular point group: c1
  Charge       = -1
  Multiplicity = 1
  Basis Set: AUG-CC-PVTZ
    Blend: AUG-CC-PVTZ
  Basis Set: (AUG-CC-PVTZ AUX)
    Blend: AUG-CC-PVTZ-JKFIT
  @DF-RHF Final Energy:  -550.71588495566778
    Total Energy =                       -550.7158849556677751
  Basis Set: (AUG-CC-PVTZ AUX)
    Blend: AUG-CC-PVTZ-RI
    Molecular point group: c1
  Basis Set: AUG-CC-PVTZ
    Blend: AUG-CC-PVTZ
  Basis Set: (AUG-CC-PVTZ AUX)
    Blend: AUG-CC-PVTZ-JKFIT
  Basis Set: (AUG-CC-PVTZ AUX)
    Blend: AUG-CC-PVTZ-JKFIT
	 Reference Energy          =    -550.7158849556677751 [Eh]
	 Singles Energy            =      -0.0000000000000001 [Eh]
	 Same-Spin Energy          =      -0.6140445894633849 [Eh]
	 Opposite-Spin Energy      =      -1.8386499872455158 [Eh]
	 Correlation Energy        =      -2.4526945767089008 [Eh]
	 Total Energy              =    -553.1685795323767252 [Eh]
	 SCS Total Energy          =    -553.1269464701834977 [Eh]
  @DF-RHF Final Energy:  -550.72319701034007
    Total Energy =                       -550.7231970103400727
  @DF-RHF Final Energy:  -550.72771956218639
    Total Energy =                       -550.7277195621863939
  @DF-RHF Final Energy:  -550.72949984989646
    Total Energy =                       -550.7294998498964560
  @DF-RHF Final Energy:  -550.72967715453888
    Total Energy =                       -550.7296771545388765
  @DF-RHF Final Energy:  -550.72968361576068
    Total Energy =                       -550.7296836157606776
  Charge       = -1
  Multiplicity = 1
  Basis Set: AUG-CC-PVTZ
    Blend: AUG-CC-PVTZ
  Basis Set: (AUG-CC-PVTZ AUX)
    Blend: AUG-CC-PVTZ-JKFIT

    Orbital Energies (a.u.)
    -----------------------

    Doubly Occupied:

       1A    -20.321144     2A    -15.443874     3A    -11.161721
       4A    -11.161638     5A    -11.146039     6A    -11.134660
       7A    -11.114234     8A    -11.114154     9A    -11.102025
      10A    -11.101868    11A    -11.077231    12A    -11.063784
      13A    -11.063572    14A     -1.151789    15A     -1.141828
      16A     -1.017149    17A     -0.957730    18A     -0.918149
      19A     -0.869420    20A     -0.839289    21A     -0.742505
      22A     -0.734877    23A     -0.675413    24A     -0.651791
      25A     -0.596947    26A     -0.549111    27A     -0.538199
      28A     -0.511538    29A     -0.486465    30A     -0.483245
      31A     -0.478516    32A     -0.439838    33A     -0.430894
      34A     -0.422635    35A     -0.398712    36A     -0.382227
      37A     -0.376240    38A     -0.348098    39A     -0.318972
      40A     -0.307544    41A     -0.249207    42A     -0.238320
      43A     -0.227090    44A     -0.203515    45A     -0.108471

  @DF-RHF Final Energy:  -550.72968269616672

   => Energetics <=

    Nuclear Repulsion Energy =            682.3978712833820737
    One-Electron Energy =               -2114.6517652307693425
    Two-Electron Energy =                 881.5242112512205495
    DFT Exchange-Correlation Energy =       0.0000000000000000
    Empirical Dispersion Energy =           0.0000000000000000
    PCM Polarization Energy =               0.0000000000000000
    EFP Energy =                            0.0000000000000000
    Total Energy =                       -550.7296826961667193
  Basis Set: (AUG-CC-PVTZ AUX)
    Blend: AUG-CC-PVTZ-RI
    Molecular point group: c1
  Basis Set: AUG-CC-PVTZ
    Blend: AUG-CC-PVTZ
  Basis Set: (AUG-CC-PVTZ AUX)
    Blend: AUG-CC-PVTZ-JKFIT
  Basis Set: (AUG-CC-PVTZ AUX)
    Blend: AUG-CC-PVTZ-JKFIT
	 Reference Energy          =    -550.7296826961667193 [Eh]
	 Singles Energy            =      -0.0000000000000001 [Eh]
	 Same-Spin Energy          =      -0.6123951873804966 [Eh]
	 Opposite-Spin Energy      =      -1.8367101425693313 [Eh]
	 Correlation Energy        =      -2.4491053299498278 [Eh]
	 Total Energy              =    -553.1787880261165355 [Eh]

	 ================> DF-SCS-MP2 Energies <==================
	-----------------------------------------------------------
	 SCS Same-Spin Scale       =       0.3333333333333333 [-]
	 SCS Opposite-Spin Scale   =       1.2000000000000000 [-]
	 SCS Same-Spin Energy      =      -0.2041317291268322 [Eh]
	 SCS Opposite-Spin Energy  =      -2.2040521710831973 [Eh]
	 SCS Correlation Energy    =      -2.4081839002100294 [Eh]
	 SCS Total Energy          =    -553.1378665963767389 [Eh]
	-----------------------------------------------------------

  -Total Gradient:
     Atom            X                  Y                   Z
    ------   -----------------  -----------------  -----------------
       1       -0.001003788106    -0.001838064160    -0.000046295527
       2        0.000042541682     0.000003702209     0.000004111635
       3       -0.000017532580    -0.000005915838    -0.000003869658
       4       -0.000025630225    -0.000028706932    -0.000001806130
       5        0.001320334541     0.001357474829     0.000966210234
       6       -0.000018836062    -0.000063419494    -0.000000537176
       7       -0.000081461891    -0.000158636925    -0.000063566156
       8        0.000099314922     0.000133536957     0.000110407126
       9        0.002201687483     0.003440169537     0.000560548200
      10       -0.002503528426    -0.002929645329    -0.001495709066
      11        0.000030142653     0.000084269519     0.000019006015
      12       -0.000027223943     0.000026932794    -0.000030505913
      13        0.000004317619    -0.000039214955    -0.000017921097
      14       -0.000002610779     0.000005584168    -0.000002496232
      15       -0.000007163411     0.000009928687     0.000001814438
      16        0.000000450374     0.000006640734    -0.000005552915
      17        0.000001168770    -0.000015430125     0.000007288895
      18        0.000000894116     0.000011352621     0.000018275916
      19       -0.000023165422    -0.000008911126    -0.000011959544
      20        0.000040233742     0.000039700072     0.000024486331
      21       -0.000030145068    -0.000031347239    -0.000031929367

  **** Optimization is complete! (in 7 steps) ****
    Final optimized geometry and variables:
    Molecular point group: c1

    Geometry (in Angstrom), charge = -1, multiplicity = 1:

    C           -1.282570509295     0.768959731867    -0.537989989867
    C           -0.329423412884     0.104742223922     1.548066595974
    C           -2.357928784582     1.320547532308     0.120348513124
    C           -1.390763961350     0.667229946097     2.219785980270
    C            1.318246230100    -0.015161079132    -1.803153047600
    C            1.608476534710    -1.536674797359    -0.025919522190
    C            2.387182567427    -0.623357032854    -2.434901223922
    C            2.673833966733    -2.074126959063    -0.724691159923
    C           -0.226746149209     0.146523433854     0.148018812490
    C            0.871887667960    -0.465894234524    -0.552424049175
    C           -2.484219983845     1.315055556596     1.550859183726
    N            3.085026047618    -1.647306595101    -1.925888656642
    O           -3.463447774580     1.827529990757     2.161731797705
    H           -1.270632031741     0.783307703811    -1.621250071591
    H            0.471883312055    -0.344387423842     2.122266847277
    H           -3.164574625003     1.772526202695    -0.441295876652
    H           -1.423019316502     0.642779063500     3.300916102202
    H            0.838070516852     0.830220633100    -2.273133038356
    H            1.328616174793    -1.967658275870     0.923685200521
    H            2.715778146661    -0.257966653168    -3.399974284804
    H            3.224601476108    -2.905463099011    -0.302337058945

*** Psi4 exiting successfully. Buy a developer a beer!
