                               Psi4 1.1 release

  ==> Input File <==

--------------------------------------------------------------------------

memory 5 Gb

molecule phepyrFOH_neutral {
  symmetry C1
  0 1
  C      1.885   -1.036   -0.112
  C      0.807   -0.463   0.561
  C      3.825   -3.269   -0.988
  C      5.328   -1.753   0.119
  C      1.800   -1.079   2.676
  C      4.927   -3.802   -1.637
  C      6.363   -2.354   -0.579
  C      2.921   -1.631   0.608
  C      4.038   -2.225   -0.095
  C      0.764   -0.484   1.955
  C      2.878   -1.652   2.002
  N      6.195   -3.370   -1.455
  O      -0.289   0.076   2.612
  F      3.866   -2.220   2.709
  H      1.904   -1.012   -1.199
  H      0.002   -0.002   -0.006
  H      2.833   -3.663   -1.183
  H      5.532   -0.940   0.809
  H      1.772   -1.099   3.762
  H      4.814   -4.616   -2.345
  H      7.387   -2.023   -0.446
  H      -0.796   0.644   2.011
  units Angstrom
}

dih_string = "2 10 13 22 345"
set optking fixed_dihedral = $dih_string

optimize('MP2/aug-cc-PVTZ')
--------------------------------------------------------------------------

    Molecular point group: c1
  Charge       = 0
  Multiplicity = 1
  Basis Set: AUG-CC-PVTZ
    Blend: AUG-CC-PVTZ
  Basis Set: (AUG-CC-PVTZ AUX)
    Blend: AUG-CC-PVTZ-JKFIT

    Orbital Energies (a.u.)
    -----------------------

    Doubly Occupied:

       1A    -26.326058     2A    -20.607933     3A    -15.565435
       4A    -11.348577     5A    -11.327374     6A    -11.275073
       7A    -11.274244     8A    -11.266384     9A    -11.265512
      10A    -11.253440    11A    -11.250993    12A    -11.249359
      13A    -11.239806    14A    -11.238420    15A     -1.644084
      16A     -1.423022    17A     -1.250589    18A     -1.181936
      19A     -1.110273    20A     -1.041579    21A     -1.034624
      22A     -1.019311    23A     -0.890823    24A     -0.876626
      25A     -0.852878    26A     -0.827617    27A     -0.780772
      28A     -0.735726    29A     -0.721962    30A     -0.710157
      31A     -0.694596    32A     -0.664909    33A     -0.663042
      34A     -0.654668    35A     -0.630674    36A     -0.612406
      37A     -0.606230    38A     -0.599147    39A     -0.579316
      40A     -0.548583    41A     -0.537050    42A     -0.526354
      43A     -0.519636    44A     -0.494901    45A     -0.419535
      46A     -0.387345    47A     -0.359565    48A     -0.349329
      49A     -0.325356

  @DF-RHF Final Energy:  -650.17327422501103

   => Energetics <=

    Nuclear Repulsion Energy =            813.8837695585915526
    One-Electron Energy =               -2502.5876295631969697
    Two-Electron Energy =                1038.5305857795942757
    DFT Exchange-Correlation Energy =       0.0000000000000000
    Empirical Dispersion Energy =           0.0000000000000000
    PCM Polarization Energy =               0.0000000000000000
    EFP Energy =                            0.0000000000000000
    Total Energy =                       -650.1732742250110277
  Basis Set: (AUG-CC-PVTZ AUX)
    Blend: AUG-CC-PVTZ-RI
    Molecular point group: c1

    Geometry (in Angstrom), charge = 0, multiplicity = 1:

       Center              X                  Y                   Z               Mass
    ------------   -----------------  -----------------  -----------------  -----------------
           C         -1.318433037528     0.751472054423    -0.791178999811    12.000000000000
           C         -2.396433037528     1.324472054423    -0.118178999811    12.000000000000
           C          0.621566962472    -1.481527945577    -1.667178999811    12.000000000000
           C          2.124566962472     0.034472054423    -0.560178999811    12.000000000000
           C         -1.403433037528     0.708472054423     1.996821000189    12.000000000000
           C          1.723566962472    -2.014527945577    -2.316178999811    12.000000000000
           C          3.159566962472    -0.566527945577    -1.258178999811    12.000000000000
           C         -0.282433037528     0.156472054423    -0.071178999811    12.000000000000
           C          0.834566962472    -0.437527945577    -0.774178999811    12.000000000000
           C         -2.439433037528     1.303472054423     1.275821000189    12.000000000000
           C         -0.325433037528     0.135472054423     1.322821000189    12.000000000000
           N          2.991566962472    -1.582527945577    -2.134178999811    14.003074004780
           O         -3.492433037528     1.863472054423     1.932821000189    15.994914619560
           F          0.662566962472    -0.432527945577     2.029821000189    18.998403224000
           H         -1.299433037528     0.775472054423    -1.878178999811     1.007825032070
           H         -3.201433037528     1.785472054423    -0.685178999811     1.007825032070
           H         -0.370433037528    -1.875527945577    -1.862178999811     1.007825032070
           H          2.328566962472     0.847472054423     0.129821000189     1.007825032070
           H         -1.431433037528     0.688472054423     3.082821000189     1.007825032070
           H          1.610566962472    -2.828527945577    -3.024178999811     1.007825032070
           H          4.183566962472    -0.235527945577    -1.125178999811     1.007825032070
           H         -3.999433037528     2.431472054423     1.331821000189     1.007825032070

  Basis Set: AUG-CC-PVTZ
    Blend: AUG-CC-PVTZ
  Basis Set: (AUG-CC-PVTZ AUX)
    Blend: AUG-CC-PVTZ-JKFIT
  Basis Set: (AUG-CC-PVTZ AUX)
    Blend: AUG-CC-PVTZ-JKFIT
	 Reference Energy          =    -650.1732742250110277 [Eh]
	 Singles Energy            =      -0.0000000000000001 [Eh]
	 Same-Spin Energy          =      -0.6775079110922900 [Eh]
	 Opposite-Spin Energy      =      -2.0193065882814034 [Eh]
	 Correlation Energy        =      -2.6968144993736933 [Eh]
	 Total Energy              =    -652.8700887243846864 [Eh]

	 ================> DF-SCS-MP2 Energies <==================
	-----------------------------------------------------------
	 SCS Same-Spin Scale       =       0.3333333333333333 [-]
	 SCS Opposite-Spin Scale   =       1.2000000000000000 [-]
	 SCS Same-Spin Energy      =      -0.2258359703640967 [Eh]
	 SCS Opposite-Spin Energy  =      -2.4231679059376838 [Eh]
	 SCS Correlation Energy    =      -2.6490038763017805 [Eh]
	 SCS Total Energy          =    -652.8222781013128042 [Eh]
	-----------------------------------------------------------

  -Total Gradient:
     Atom            X                  Y                   Z
    ------   -----------------  -----------------  -----------------
       1        0.010024004733    -0.002919134859    -0.011197203103
       2       -0.005829123528     0.003069386527     0.004279230787
       3       -0.007265388182    -0.000990888977     0.003010066825
       4       -0.003796809563     0.005882335694     0.003661391353
       5       -0.001666475502     0.002104740058    -0.006616578571
       6       -0.014013764946    -0.001018668880     0.002642449998
       7       -0.003114916240     0.009524816121     0.008719754558
       8       -0.001022985787     0.000525126465    -0.001993870902
       9       -0.001429121465     0.000991967989    -0.000553820520
      10       -0.001894142490    -0.001612139065     0.013309201265
      11        0.023392725452    -0.015078607236     0.006139381258
      12        0.013516707736    -0.006731688204    -0.008428192546
      13       -0.000478379563    -0.002377120831    -0.006942575121
      14        0.002502483509    -0.000955715958     0.002659282799
      15       -0.003171994197     0.001515209329    -0.006042647849
      16       -0.002922474166     0.001651675403    -0.003367680155
      17       -0.003123874318    -0.002572891403    -0.002790564887
      18        0.002890969068     0.003646083168     0.002785741089
      19        0.000487539719    -0.000502575532     0.005508436441
      20        0.000384493689    -0.001765008186    -0.001997180108
      21        0.002495790407     0.000173838317     0.000078032408
      22       -0.005965264369     0.007439260068    -0.002862655013

*** Psi4 exiting successfully. Buy a developer a beer!
