                               Psi4 1.1 release

  ==> Input File <==

--------------------------------------------------------------------------

memory 5000 mb

molecule butane {
  symmetry C1
  0 1
  H      1.893   0.435   -9.332
  H      1.541   1.589   -8.068
  H      1.958   2.147   -9.669
  C      2.142   1.395   -8.932
  H      4.169   2.051   -9.210
  H      3.731   1.788   -7.539
  C      3.631   1.416   -8.537
  H      3.665   -0.647   -7.940
  H      4.104   -0.384   -9.610
  C      4.203   -0.012   -8.612
  H      6.088   -0.983   -8.270
  H      5.791   0.381   -7.220
  H      6.230   0.644   -8.890
  C      5.691   0.009   -8.218
  units Angstrom
}

dih_string = "10 7 4 3 230"
set optking fixed_dihedral = $dih_string

optimize('MP2/aug-cc-pvtz')
--------------------------------------------------------------------------

    Molecular point group: c1
  Charge       = 0
  Multiplicity = 1
  Basis Set: AUG-CC-PVTZ
    Blend: AUG-CC-PVTZ
  Basis Set: (AUG-CC-PVTZ AUX)
    Blend: AUG-CC-PVTZ-JKFIT
  @DF-RHF Final Energy:  -157.34755602570459
    Total Energy =                       -157.3475560257045913
  Basis Set: (AUG-CC-PVTZ AUX)
    Blend: AUG-CC-PVTZ-RI
    Molecular point group: c1
  Basis Set: AUG-CC-PVTZ
    Blend: AUG-CC-PVTZ
  Basis Set: (AUG-CC-PVTZ AUX)
    Blend: AUG-CC-PVTZ-JKFIT
  Basis Set: (AUG-CC-PVTZ AUX)
    Blend: AUG-CC-PVTZ-JKFIT
	 Reference Energy          =    -157.3475560257045913 [Eh]
	 Singles Energy            =      -0.0000000000000001 [Eh]
	 Same-Spin Energy          =      -0.1654801956530184 [Eh]
	 Opposite-Spin Energy      =      -0.6394398518418197 [Eh]
	 Correlation Energy        =      -0.8049200474948381 [Eh]
	 Total Energy              =    -158.1524760731994377 [Eh]
	 SCS Total Energy          =    -158.1700439131324458 [Eh]
  @DF-RHF Final Energy:  -157.35047099164305
    Total Energy =                       -157.3504709916430500
  @DF-RHF Final Energy:  -157.35137682016446
    Total Energy =                       -157.3513768201644609
  @DF-RHF Final Energy:  -157.35167782168327
    Total Energy =                       -157.3516778216832677
  @DF-RHF Final Energy:  -157.35167053520672
    Total Energy =                       -157.3516705352067220
  @DF-RHF Final Energy:  -157.35167760358581
    Total Energy =                       -157.3516776035858129
  @DF-RHF Final Energy:  -157.35167892696336
    Total Energy =                       -157.3516789269633591
  Charge       = 0
  Multiplicity = 1
  Basis Set: AUG-CC-PVTZ
    Blend: AUG-CC-PVTZ
  Basis Set: (AUG-CC-PVTZ AUX)
    Blend: AUG-CC-PVTZ-JKFIT

    Orbital Energies (a.u.)
    -----------------------

    Doubly Occupied:

       1A    -11.211696     2A    -11.210906     3A    -11.205937
       4A    -11.205586     5A     -1.072800     6A     -0.980317
       7A     -0.861890     8A     -0.788911     9A     -0.639009
      10A     -0.583304    11A     -0.577561    12A     -0.569919
      13A     -0.510819    14A     -0.497288    15A     -0.470378
      16A     -0.457660    17A     -0.455416

  @DF-RHF Final Energy:  -157.35166433844731

   => Energetics <=

    Nuclear Repulsion Energy =            131.2988145693648505
    One-Electron Energy =                -470.7021630617821302
    Two-Electron Energy =                 182.0516841539700010
    DFT Exchange-Correlation Energy =       0.0000000000000000
    Empirical Dispersion Energy =           0.0000000000000000
    PCM Polarization Energy =               0.0000000000000000
    EFP Energy =                            0.0000000000000000
    Total Energy =                       -157.3516643384473070
  Basis Set: (AUG-CC-PVTZ AUX)
    Blend: AUG-CC-PVTZ-RI
    Molecular point group: c1
  Basis Set: AUG-CC-PVTZ
    Blend: AUG-CC-PVTZ
  Basis Set: (AUG-CC-PVTZ AUX)
    Blend: AUG-CC-PVTZ-JKFIT
  Basis Set: (AUG-CC-PVTZ AUX)
    Blend: AUG-CC-PVTZ-JKFIT
	 Reference Energy          =    -157.3516643384473070 [Eh]
	 Singles Energy            =      -0.0000000000000000 [Eh]
	 Same-Spin Energy          =      -0.1654553603857814 [Eh]
	 Opposite-Spin Energy      =      -0.6398607247222633 [Eh]
	 Correlation Energy        =      -0.8053160851080446 [Eh]
	 Total Energy              =    -158.1569804235553534 [Eh]

	 ================> DF-SCS-MP2 Energies <==================
	-----------------------------------------------------------
	 SCS Same-Spin Scale       =       0.3333333333333333 [-]
	 SCS Opposite-Spin Scale   =       1.2000000000000000 [-]
	 SCS Same-Spin Energy      =      -0.0551517867952605 [Eh]
	 SCS Opposite-Spin Energy  =      -0.7678328696667159 [Eh]
	 SCS Correlation Energy    =      -0.8229846564619764 [Eh]
	 SCS Total Energy          =    -158.1746489949092904 [Eh]
	-----------------------------------------------------------

  -Total Gradient:
     Atom            X                  Y                   Z
    ------   -----------------  -----------------  -----------------
       1       -0.000003721005    -0.000037732451     0.000037256235
       2       -0.000125142731     0.000106294735     0.000093780971
       3        0.000329273608    -0.001147126376    -0.001443875784
       4       -0.000160605195     0.001458554318     0.001238700904
       5       -0.000010720557     0.000025952010    -0.000016694087
       6       -0.000020308297    -0.000010129423     0.000124447121
       7       -0.000296198968    -0.000636254209     0.001341849634
       8       -0.000039494458    -0.000032895770     0.000060591271
       9        0.000010719587    -0.000022713887    -0.000065475740
      10        0.000442986381     0.000260469201    -0.001400218824
      11        0.000036335590    -0.000103574096     0.000014379823
      12        0.000059441496     0.000047286263     0.000127397174
      13        0.000069696238     0.000062725919    -0.000066107554
      14       -0.000292261687     0.000029143767    -0.000046031145

  **** Optimization is complete! (in 8 steps) ****
    Final optimized geometry and variables:
    Molecular point group: c1

    Geometry (in Angstrom), charge = 0, multiplicity = 1:

    H           -2.074899619942    -0.257194209854    -0.780314960215
    H           -2.423646493226     0.873645459053     0.511890308619
    H           -2.013503002272     1.459794987537    -1.095836534094
    C           -1.786521120662     0.701189120808    -0.351345653289
    H            0.257021196294     1.341725522725    -0.650596529514
    H           -0.161822111408     1.102890921964     1.023850484623
    C           -0.302259269815     0.692606783545     0.023686352770
    H           -0.250209094090    -1.360697508096     0.622578374846
    H            0.199946285889    -1.086150968256    -1.044403709522
    C            0.312762132066    -0.693633260983    -0.032752425810
    H            2.203026261010    -1.698509697545     0.309443145097
    H            1.902730489515    -0.333467563743     1.379730598802
    H            2.354563771594    -0.052331541726    -0.295941268882
    C            1.776588713971    -0.699298047245     0.362057848127

*** Psi4 exiting successfully. Buy a developer a beer!
