                              Psi4 1.0.0 Driver

  ==> Input File <==

--------------------------------------------------------------------------

memory 1000 mb

molecule butane {
  symmetry C1
  0 1
  H      1.604   0.760   -8.260
  H      1.745   2.388   -8.880
  H      2.043   1.024   -9.930
  C      2.142   1.395   -8.932
  H      4.169   2.051   -9.210
  H      3.731   1.788   -7.539
  C      3.631   1.416   -8.537
  H      5.109   -0.003   -9.180
  H      4.406   -0.367   -7.624
  C      4.203   -0.012   -8.612
  H      3.578   -1.932   -9.343
  H      2.976   -0.586   -10.279
  H      2.273   -0.950   -8.723
  C      3.180   -0.941   -9.291
  units Angstrom
}

dih_string = "4 7 10 14 10"
set optking fixed_dihedral = $dih_string

optimize('MP2/6-31G(d)')
--------------------------------------------------------------------------

    Molecular point group: c1
  Charge       = 0
  Multiplicity = 1
  Basis Set: 6-31G(D)
  Basis Set:
  @DF-RHF Final Energy:  -157.27305960637804
    Total Energy =                       -157.2730596063778989
  Basis Set:
    Molecular point group: c1
  Basis Set: 6-31G(D)
  Basis Set:
  Basis Set:
	 Reference Energy          =    -157.2730596063780411 [Eh]
	 Singles Energy            =      -0.0000000000000000 [Eh]
	 Same-Spin Energy          =      -0.1253916325606134 [Eh]
	 Opposite-Spin Energy      =      -0.4216448993835422 [Eh]
	 Correlation Energy        =      -0.5470365319441556 [Eh]
	 Total Energy              =    -157.8200961383221852 [Eh]
	 SCS Total Energy          =    -157.8208306964918393 [Eh]
  Basis Set: 6-31G(D)
  Basis Set:
  @DF-RHF Final Energy:  -157.28344010229702
    Total Energy =                       -157.2834401022972770
  Basis Set:
  Basis Set: 6-31G(D)
  Basis Set:
  @DF-RHF Final Energy:  -157.28660408387987
    Total Energy =                       -157.2866040838797517
  @DF-RHF Final Energy:  -157.28796204756657
    Total Energy =                       -157.2879620475664240
  @DF-RHF Final Energy:  -157.28852850565397
    Total Energy =                       -157.2885285056539999
  @DF-RHF Final Energy:  -157.28857775019739
    Total Energy =                       -157.2885777501973621
  @DF-RHF Final Energy:  -157.28859469321256
    Total Energy =                       -157.2885946932126160
  @DF-RHF Final Energy:  -157.28862976150410
    Total Energy =                       -157.2886297615040689
  @DF-RHF Final Energy:  -157.28845167763694
    Total Energy =                       -157.2884516776368855
  @DF-RHF Final Energy:  -157.28852299116784
    Total Energy =                       -157.2885229911678948
  @DF-RHF Final Energy:  -157.28858140287736
    Total Energy =                       -157.2885814028772984
  @DF-RHF Final Energy:  -157.28859957282026
    Total Energy =                       -157.2885995728202033
  @DF-RHF Final Energy:  -157.28751355961569
    Total Energy =                       -157.2875135596156042
  @DF-RHF Final Energy:  -157.28801992788021
    Total Energy =                       -157.2880199278802422
  @DF-RHF Final Energy:  -157.28855640739883
    Total Energy =                       -157.2885564073987155
  @DF-RHF Final Energy:  -157.28859477325020
    Total Energy =                       -157.2885947732503098
  @DF-RHF Final Energy:  -157.28858022337954
    Total Energy =                       -157.2885802233795403
  @DF-RHF Final Energy:  -157.28777401175648
    Total Energy =                       -157.2877740117564258
  @DF-RHF Final Energy:  -157.28820001910236
    Total Energy =                       -157.2882000191023906
  @DF-RHF Final Energy:  -157.28797462852887
    Total Energy =                       -157.2879746285290139
  @DF-RHF Final Energy:  -157.28849782359805
    Total Energy =                       -157.2884978235981919
  @DF-RHF Final Energy:  -157.28793256571339
    Total Energy =                       -157.2879325657131915
  @DF-RHF Final Energy:  -157.28748008050593
    Total Energy =                       -157.2874800805057873
  @DF-RHF Final Energy:  -157.28838290819957
    Total Energy =                       -157.2883829081996794
  @DF-RHF Final Energy:  -157.28838789859026
    Total Energy =                       -157.2883878985897752
  @DF-RHF Final Energy:  -157.28851664976995
    Total Energy =                       -157.2885166497699743
  @DF-RHF Final Energy:  -157.28850853135216
    Total Energy =                       -157.2885085313520221
  @DF-RHF Final Energy:  -157.28851656008658
    Total Energy =                       -157.2885165600866344
  @DF-RHF Final Energy:  -157.28804620111757
    Total Energy =                       -157.2880462011174245
  @DF-RHF Final Energy:  -157.28740110578127
    Total Energy =                       -157.2874011057812709
  @DF-RHF Final Energy:  -157.28815546402294
    Total Energy =                       -157.2881554640230206
  @DF-RHF Final Energy:  -157.28772300318988
    Total Energy =                       -157.2877230031896829
  @DF-RHF Final Energy:  -157.28830748302835
    Total Energy =                       -157.2883074830284613
  @DF-RHF Final Energy:  -157.28817372946372
    Total Energy =                       -157.2881737294639208
  @DF-RHF Final Energy:  -157.28853689628554
    Total Energy =                       -157.2885368962853931
  @DF-RHF Final Energy:  -157.28855709801516
    Total Energy =                       -157.2885570980150192
  @DF-RHF Final Energy:  -157.28852841299019
    Total Energy =                       -157.2885284129903312
  @DF-RHF Final Energy:  -157.28851764422802
    Total Energy =                       -157.2885176442279658
  @DF-RHF Final Energy:  -157.28852553532525
    Total Energy =                       -157.2885255353253342
	 Singles Energy            =      -0.0000000000000000 [Eh]
	 Same-Spin Energy          =      -0.1242826722237814 [Eh]
	 Opposite-Spin Energy      =      -0.4225791210932641 [Eh]
	 Correlation Energy        =      -0.5468617933170455 [Eh]
	 Total Energy              =    -157.8353873286422981 [Eh]
	 SCS Total Energy          =    -157.8370480380450829 [Eh]
  Charge       = 0
  Multiplicity = 1
  Basis Set: 6-31G(D)
  Basis Set:

    Orbital Energies (a.u.)
    -----------------------

    Doubly Occupied:

       1A    -11.216104     2A    -11.215572     3A    -11.209378
       4A    -11.209326     5A     -1.065356     6A     -0.974980
       7A     -0.876117     8A     -0.767860     9A     -0.632408
      10A     -0.613606    11A     -0.565027    12A     -0.537609
      13A     -0.524749    14A     -0.510953    15A     -0.462863
      16A     -0.457435    17A     -0.443330

  @DF-RHF Final Energy:  -157.28852330358100

   => Energetics <=

    Nuclear Repulsion Energy =            132.7265465590532756
    One-Electron Energy =                -473.4647946687414333
    Two-Electron Energy =                 183.4497248061073833
    DFT Exchange-Correlation Energy =       0.0000000000000000
    Empirical Dispersion Energy =           0.0000000000000000
    PCM Polarization Energy =               0.0000000000000000
    EFP Energy =                            0.0000000000000000
    Total Energy =                       -157.2885233035807460
  Basis Set:
    Molecular point group: c1
  Basis Set: 6-31G(D)
  Basis Set:
  Basis Set:
	 Reference Energy          =    -157.2885233035810018 [Eh]
	 Singles Energy            =      -0.0000000000000000 [Eh]
	 Same-Spin Energy          =      -0.1242842240218870 [Eh]
	 Opposite-Spin Energy      =      -0.4225802869015561 [Eh]
	 Correlation Energy        =      -0.5468645109234430 [Eh]
	 Total Energy              =    -157.8353878145044575 [Eh]

	 ================> DF-SCS-MP2 Energies <==================
	-----------------------------------------------------------
	 SCS Same-Spin Scale       =       0.3333333333333333 [-]
	 SCS Opposite-Spin Scale   =       1.2000000000000000 [-]
	 SCS Same-Spin Energy      =      -0.0414280746739623 [Eh]
	 SCS Opposite-Spin Energy  =      -0.5070963442818672 [Eh]
	 SCS Correlation Energy    =      -0.5485244189558296 [Eh]
	 SCS Total Energy          =    -157.8370477225368234 [Eh]
	-----------------------------------------------------------

  -Total Gradient:
     Atom            X                  Y                   Z
    ------   -----------------  -----------------  -----------------
       1        0.000847049167     0.000196174359     0.000053222633
       2        0.000450585235    -0.000551221431    -0.000028439356
       3        0.000413498996     0.000251404472    -0.000739723055
       4        0.000162188223     0.000609789682    -0.001244694897
       5       -0.000771675600     0.001200047781     0.001155822167
       6        0.000212683222     0.000245949100    -0.000149066500
       7       -0.001606340994    -0.000694715499     0.000856545539
       8        0.000354121042     0.000130177567     0.000406808280
       9        0.001125355298    -0.000982971980    -0.001618568364
      10       -0.000883819740    -0.000411660545    -0.001554847619
      11        0.000028372381     0.000614507410     0.000458315931
      12        0.000522542910     0.000471330860     0.000542085784
      13       -0.000161057289    -0.000115942711     0.000360273218
      14       -0.000693502850    -0.000962869064     0.001502266238

    Molecular point group: c1

    Geometry (in Angstrom), charge = 0, multiplicity = 1:

    H           -1.773116624603     0.555040424290     0.628507562099
    H           -1.415811245385     2.176423160377     0.034387478762
    H           -1.361985359530     0.807185077804    -1.075895621034
    C           -1.137368510507     1.123406648417    -0.053987609931
    H            0.909714409899     1.592773850923    -0.406754461255
    H            0.530148151232     1.359132004012     1.272642784552
    C            0.342675342077     0.949654250768     0.274335179045
    H            1.839422243782    -0.492839131246    -0.345651846654
    H            1.162582529605    -0.835570957805     1.215872050697
    C            0.895474297157    -0.497398389951     0.209984870862
    H            0.463130623210    -2.525658199502    -0.383986298009
    H           -0.269992488412    -1.316411342967    -1.440661872874
    H           -0.963127639195    -1.638891974980     0.154577262758
    C           -0.026954972095    -1.548886522314    -0.401192610204

*** Psi4 exiting successfully. Buy a developer a beer!
