                               Psi4 1.1 release

  ==> Input File <==

--------------------------------------------------------------------------

memory 5 Gb

molecule phepyrFOH_neutral {
  symmetry C1
  0 1
  C      1.885   -1.036   -0.112
  C      0.807   -0.463   0.561
  C      3.825   -3.269   -0.988
  C      5.328   -1.753   0.119
  C      1.800   -1.079   2.676
  C      4.927   -3.802   -1.637
  C      6.363   -2.354   -0.579
  C      2.921   -1.631   0.608
  C      4.038   -2.225   -0.095
  C      0.764   -0.484   1.955
  C      2.878   -1.652   2.002
  N      6.195   -3.370   -1.455
  O      -0.289   0.076   2.612
  F      3.866   -2.220   2.709
  H      1.904   -1.012   -1.199
  H      0.002   -0.002   -0.006
  H      2.833   -3.663   -1.183
  H      5.532   -0.940   0.809
  H      1.772   -1.099   3.762
  H      4.814   -4.616   -2.345
  H      7.387   -2.023   -0.446
  H      -0.175   -0.018   3.571
  units Angstrom
}

dih_string = "2 10 13 22 180.001"
set optking fixed_dihedral = $dih_string

optimize('MP2/aug-cc-PVTZ')
--------------------------------------------------------------------------

    Molecular point group: c1
  Charge       = 0
  Multiplicity = 1
  Basis Set: AUG-CC-PVTZ
    Blend: AUG-CC-PVTZ
  Basis Set: (AUG-CC-PVTZ AUX)
    Blend: AUG-CC-PVTZ-JKFIT

    Orbital Energies (a.u.)
    -----------------------

    Doubly Occupied:

       1A    -26.327689     2A    -20.609289     3A    -15.565331
       4A    -11.349729     5A    -11.327954     6A    -11.274944
       7A    -11.274187     8A    -11.265390     9A    -11.265233
      10A    -11.254333    11A    -11.252861    12A    -11.245882
      13A    -11.239622    14A    -11.238359    15A     -1.645877
      16A     -1.423904    17A     -1.250487    18A     -1.181850
      19A     -1.110280    20A     -1.041479    21A     -1.034515
      22A     -1.019603    23A     -0.892003    24A     -0.876982
      25A     -0.853845    26A     -0.824823    27A     -0.773147
      28A     -0.747465    29A     -0.725060    30A     -0.712123
      31A     -0.697226    32A     -0.664642    33A     -0.661238
      34A     -0.642003    35A     -0.635751    36A     -0.614206
      37A     -0.608637    38A     -0.599219    39A     -0.577937
      40A     -0.543567    41A     -0.534052    42A     -0.533363
      43A     -0.521985    44A     -0.494633    45A     -0.419439
      46A     -0.387188    47A     -0.360135    48A     -0.349235
      49A     -0.324357

  @DF-RHF Final Energy:  -650.17359227460770

   => Energetics <=

    Nuclear Repulsion Energy =            814.0241992639238333
    One-Electron Energy =               -2502.8494640935487041
    Two-Electron Energy =                1038.6516725550170577
    DFT Exchange-Correlation Energy =       0.0000000000000000
    Empirical Dispersion Energy =           0.0000000000000000
    PCM Polarization Energy =               0.0000000000000000
    EFP Energy =                            0.0000000000000000
    Total Energy =                       -650.1735922746076994
  Basis Set: (AUG-CC-PVTZ AUX)
    Blend: AUG-CC-PVTZ-RI
    Molecular point group: c1

    Geometry (in Angstrom), charge = 0, multiplicity = 1:

       Center              X                  Y                   Z               Mass
    ------------   -----------------  -----------------  -----------------  -----------------
           C         -1.321743429369     0.755001006756    -0.799494959991    12.000000000000
           C         -2.399743429369     1.328001006756    -0.126494959991    12.000000000000
           C          0.618256570631    -1.477998993244    -1.675494959991    12.000000000000
           C          2.121256570631     0.038001006756    -0.568494959991    12.000000000000
           C         -1.406743429369     0.712001006756     1.988505040009    12.000000000000
           C          1.720256570631    -2.010998993244    -2.324494959991    12.000000000000
           C          3.156256570631    -0.562998993244    -1.266494959991    12.000000000000
           C         -0.285743429369     0.160001006756    -0.079494959991    12.000000000000
           C          0.831256570631    -0.433998993244    -0.782494959991    12.000000000000
           C         -2.442743429369     1.307001006756     1.267505040009    12.000000000000
           C         -0.328743429369     0.139001006756     1.314505040009    12.000000000000
           N          2.988256570631    -1.578998993244    -2.142494959991    14.003074004780
           O         -3.495743429369     1.867001006756     1.924505040009    15.994914619560
           F          0.659256570631    -0.428998993244     2.021505040009    18.998403224000
           H         -1.302743429369     0.779001006756    -1.886494959991     1.007825032070
           H         -3.204743429369     1.789001006756    -0.693494959991     1.007825032070
           H         -0.373743429369    -1.871998993244    -1.870494959991     1.007825032070
           H          2.325256570631     0.851001006756     0.121505040009     1.007825032070
           H         -1.434743429369     0.692001006756     3.074505040009     1.007825032070
           H          1.607256570631    -2.824998993244    -3.032494959991     1.007825032070
           H          4.180256570631    -0.231998993244    -1.133494959991     1.007825032070
           H         -3.381743429369     1.773001006756     2.883505040009     1.007825032070

  Basis Set: AUG-CC-PVTZ
    Blend: AUG-CC-PVTZ
  Basis Set: (AUG-CC-PVTZ AUX)
    Blend: AUG-CC-PVTZ-JKFIT
  Basis Set: (AUG-CC-PVTZ AUX)
    Blend: AUG-CC-PVTZ-JKFIT
	 Reference Energy          =    -650.1735922746076994 [Eh]
	 Singles Energy            =      -0.0000000000000001 [Eh]
	 Same-Spin Energy          =      -0.6775242357027828 [Eh]
	 Opposite-Spin Energy      =      -2.0194501901688593 [Eh]
	 Correlation Energy        =      -2.6969744258716419 [Eh]
	 Total Energy              =    -652.8705667004793440 [Eh]

	 ================> DF-SCS-MP2 Energies <==================
	-----------------------------------------------------------
	 SCS Same-Spin Scale       =       0.3333333333333333 [-]
	 SCS Opposite-Spin Scale   =       1.2000000000000000 [-]
	 SCS Same-Spin Energy      =      -0.2258414119009276 [Eh]
	 SCS Opposite-Spin Energy  =      -2.4233402282026311 [Eh]
	 SCS Correlation Energy    =      -2.6491816401035586 [Eh]
	 SCS Total Energy          =    -652.8227739147112061 [Eh]
	-----------------------------------------------------------

  -Total Gradient:
     Atom            X                  Y                   Z
    ------   -----------------  -----------------  -----------------
       1        0.010478073295    -0.002631422239    -0.014340680078
       2        0.003920686182    -0.001899119842     0.003328533506
       3       -0.007252513565    -0.000976941393     0.003048593805
       4       -0.003863734814     0.005911844729     0.003742410428
       5       -0.008042659418     0.004398785752     0.001140125667
       6       -0.014012535471    -0.001029258937     0.002628237926
       7       -0.003142746800     0.009524462582     0.008706709020
       8       -0.001225868936     0.000738311255    -0.002700398218
       9       -0.001575432565     0.001056508361    -0.000960375527
      10       -0.008679128871     0.005035671164    -0.004558940490
      11        0.021084471901    -0.014834114119     0.005530615720
      12        0.013503359587    -0.006731488577    -0.008449808572
      13        0.002795792285    -0.001643928687     0.000382081520
      14        0.001602121016    -0.000310657123     0.002179100941
      15       -0.002791131141     0.001290977283    -0.006286001879
      16       -0.003341175560     0.001636212971    -0.005368467809
      17       -0.003132432774    -0.002590293157    -0.002774889318
      18        0.002901779901     0.003647399278     0.002818442539
      19       -0.000939520223     0.000630127649     0.004379956400
      20        0.000393007210    -0.001766334420    -0.001985537062
      21        0.002492324208     0.000168824738     0.000091089451
      22       -0.001172735464     0.000374432737     0.009449202036

*** Psi4 exiting successfully. Buy a developer a beer!
