                               Psi4 1.1 release

  ==> Input File <==

--------------------------------------------------------------------------

memory 5000 mb

molecule butane {
  symmetry C1
  0 1
  H      1.933   0.505   -9.488
  H      1.538   1.414   -8.048
  H      1.920   2.251   -9.533
  C      2.142   1.395   -8.932
  H      4.169   2.051   -9.210
  H      3.731   1.788   -7.539
  C      3.631   1.416   -8.537
  H      3.665   -0.647   -7.940
  H      4.104   -0.384   -9.610
  C      4.203   -0.012   -8.612
  H      6.088   -0.983   -8.270
  H      5.791   0.381   -7.220
  H      6.230   0.644   -8.890
  C      5.691   0.009   -8.218
  units Angstrom
}

dih_string = "10 7 4 3 220"
set optking fixed_dihedral = $dih_string

optimize('MP2/aug-cc-pvtz')
--------------------------------------------------------------------------

    Molecular point group: c1
  Charge       = 0
  Multiplicity = 1
  Basis Set: AUG-CC-PVTZ
    Blend: AUG-CC-PVTZ
  Basis Set: (AUG-CC-PVTZ AUX)
    Blend: AUG-CC-PVTZ-JKFIT
  @DF-RHF Final Energy:  -157.34862429115725
    Total Energy =                       -157.3486242911572504
  Basis Set: (AUG-CC-PVTZ AUX)
    Blend: AUG-CC-PVTZ-RI
    Molecular point group: c1
  Basis Set: AUG-CC-PVTZ
    Blend: AUG-CC-PVTZ
  Basis Set: (AUG-CC-PVTZ AUX)
    Blend: AUG-CC-PVTZ-JKFIT
  Basis Set: (AUG-CC-PVTZ AUX)
    Blend: AUG-CC-PVTZ-JKFIT
	 Reference Energy          =    -157.3486242911572504 [Eh]
	 Singles Energy            =      -0.0000000000000000 [Eh]
	 Same-Spin Energy          =      -0.1654601824128597 [Eh]
	 Opposite-Spin Energy      =      -0.6393228252909620 [Eh]
	 Correlation Energy        =      -0.8047830077038217 [Eh]
	 Total Energy              =    -158.1534072988610831 [Eh]
	 SCS Total Energy          =    -158.1709650756440340 [Eh]
  @DF-RHF Final Energy:  -157.35145375763801
    Total Energy =                       -157.3514537576380121
  @DF-RHF Final Energy:  -157.35234196632973
    Total Energy =                       -157.3523419663297318
  @DF-RHF Final Energy:  -157.35266534799757
    Total Energy =                       -157.3526653479975721
  @DF-RHF Final Energy:  -157.35269570916182
    Total Energy =                       -157.3526957091618215
  @DF-RHF Final Energy:  -157.35269937512498
    Total Energy =                       -157.3526993751249847
  Charge       = 0
  Multiplicity = 1
  Basis Set: AUG-CC-PVTZ
    Blend: AUG-CC-PVTZ
  Basis Set: (AUG-CC-PVTZ AUX)
    Blend: AUG-CC-PVTZ-JKFIT

    Orbital Energies (a.u.)
    -----------------------

    Doubly Occupied:

       1A    -11.211619     2A    -11.210870     3A    -11.205921
       4A    -11.205639     5A     -1.073167     6A     -0.980786
       7A     -0.861697     8A     -0.788757     9A     -0.639641
      10A     -0.583603    11A     -0.577298    12A     -0.570037
      13A     -0.511211    14A     -0.497041    15A     -0.470319
      16A     -0.458900    17A     -0.455237

  @DF-RHF Final Energy:  -157.35270104977505

   => Energetics <=

    Nuclear Repulsion Energy =            131.3606051115027924
    One-Electron Energy =                -470.8231220511452193
    Two-Electron Energy =                 182.1098158898674058
    DFT Exchange-Correlation Energy =       0.0000000000000000
    Empirical Dispersion Energy =           0.0000000000000000
    PCM Polarization Energy =               0.0000000000000000
    EFP Energy =                            0.0000000000000000
    Total Energy =                       -157.3527010497750496
  Basis Set: (AUG-CC-PVTZ AUX)
    Blend: AUG-CC-PVTZ-RI
    Molecular point group: c1
  Basis Set: AUG-CC-PVTZ
    Blend: AUG-CC-PVTZ
  Basis Set: (AUG-CC-PVTZ AUX)
    Blend: AUG-CC-PVTZ-JKFIT
  Basis Set: (AUG-CC-PVTZ AUX)
    Blend: AUG-CC-PVTZ-JKFIT
	 Reference Energy          =    -157.3527010497750496 [Eh]
	 Singles Energy            =      -0.0000000000000000 [Eh]
	 Same-Spin Energy          =      -0.1654637802188027 [Eh]
	 Opposite-Spin Energy      =      -0.6397206513120678 [Eh]
	 Correlation Energy        =      -0.8051844315308705 [Eh]
	 Total Energy              =    -158.1578854813059252 [Eh]

	 ================> DF-SCS-MP2 Energies <==================
	-----------------------------------------------------------
	 SCS Same-Spin Scale       =       0.3333333333333333 [-]
	 SCS Opposite-Spin Scale   =       1.2000000000000000 [-]
	 SCS Same-Spin Energy      =      -0.0551545934062676 [Eh]
	 SCS Opposite-Spin Energy  =      -0.7676647815744814 [Eh]
	 SCS Correlation Energy    =      -0.8228193749807490 [Eh]
	 SCS Total Energy          =    -158.1755204247558027 [Eh]
	-----------------------------------------------------------

  -Total Gradient:
     Atom            X                  Y                   Z
    ------   -----------------  -----------------  -----------------
       1        0.000012563972     0.000002255135     0.000006265014
       2        0.000011508118     0.000006996787    -0.000003764505
       3        0.000635980839    -0.001649444448    -0.002629289398
       4       -0.000655586393     0.002207951900     0.002450726184
       5       -0.000006249386    -0.000026983992    -0.000013664080
       6       -0.000014442457    -0.000005656162     0.000002261000
       7       -0.000542211120    -0.000852490033     0.002409981444
       8        0.000011587386     0.000023302918     0.000015366042
       9        0.000007367317     0.000008081868    -0.000000752570
      10        0.000506772240     0.000296757176    -0.002238023937
      11       -0.000000831437     0.000006997171    -0.000002787622
      12       -0.000012520823    -0.000005947285    -0.000009507595
      13       -0.000013350879    -0.000007001105     0.000000643320
      14        0.000059412619    -0.000004819931     0.000012546705

  **** Optimization is complete! (in 7 steps) ****
    Final optimized geometry and variables:
    Molecular point group: c1

    Geometry (in Angstrom), charge = 0, multiplicity = 1:

    H           -2.029861414461    -0.168950334866    -0.937572754271
    H           -2.417909790976     0.694405614919     0.537780541007
    H           -2.043762926748     1.574852070399    -0.946156485203
    C           -1.782094148507     0.709457571617    -0.343055143658
    H            0.256569854801     1.336611134193    -0.661483274329
    H           -0.149841250327     1.112595815548     1.019072136965
    C           -0.299033215045     0.694922923749     0.023334713025
    H           -0.257850091975    -1.363180184318     0.613225711103
    H            0.196089189296    -1.079625759722    -1.051180190986
    C            0.308754774138    -0.694198743193    -0.037050012155
    H            2.195942131909    -1.708568739373     0.295582238441
    H            1.897862986107    -0.356059361242     1.381941995578
    H            2.352688960931    -0.055818833091    -0.289442230876
    C            1.772378665880    -0.709027911977     0.359981399592

*** Psi4 exiting successfully. Buy a developer a beer!
