                               Psi4 1.1 release

  ==> Input File <==

--------------------------------------------------------------------------

memory 5000 mb

molecule butane {
  symmetry C1
  0 1
  H      1.674   0.529   -8.513
  H      1.661   2.276   -8.559
  H      2.056   1.367   -9.997
  C      2.142   1.395   -8.932
  H      4.169   2.051   -9.210
  H      3.731   1.788   -7.539
  C      3.631   1.416   -8.537
  H      3.665   -0.647   -7.940
  H      4.104   -0.384   -9.610
  C      4.203   -0.012   -8.612
  H      6.088   -0.983   -8.270
  H      5.791   0.381   -7.220
  H      6.230   0.644   -8.890
  C      5.691   0.009   -8.218
  units Angstrom
}

dih_string = "10 7 4 3 280"
set optking fixed_dihedral = $dih_string

optimize('MP2/aug-cc-pvtz')
--------------------------------------------------------------------------

    Molecular point group: c1
  Charge       = 0
  Multiplicity = 1
  Basis Set: AUG-CC-PVTZ
    Blend: AUG-CC-PVTZ
  Basis Set: (AUG-CC-PVTZ AUX)
    Blend: AUG-CC-PVTZ-JKFIT
  @DF-RHF Final Energy:  -157.35142757520339
    Total Energy =                       -157.3514275752033882
  Basis Set: (AUG-CC-PVTZ AUX)
    Blend: AUG-CC-PVTZ-RI
    Molecular point group: c1
  Basis Set: AUG-CC-PVTZ
    Blend: AUG-CC-PVTZ
  Basis Set: (AUG-CC-PVTZ AUX)
    Blend: AUG-CC-PVTZ-JKFIT
  Basis Set: (AUG-CC-PVTZ AUX)
    Blend: AUG-CC-PVTZ-JKFIT
	 Reference Energy          =    -157.3514275752033882 [Eh]
	 Singles Energy            =      -0.0000000000000000 [Eh]
	 Same-Spin Energy          =      -0.1653999442607551 [Eh]
	 Opposite-Spin Energy      =      -0.6388810368501097 [Eh]
	 Correlation Energy        =      -0.8042809811108648 [Eh]
	 Total Energy              =    -158.1557085563142664 [Eh]
	 SCS Total Energy          =    -158.1732181341770911 [Eh]
  @DF-RHF Final Energy:  -157.35411135535605
    Total Energy =                       -157.3541113553560535
  @DF-RHF Final Energy:  -157.35493634103111
    Total Energy =                       -157.3549363410311059
  @DF-RHF Final Energy:  -157.35521490892245
    Total Energy =                       -157.3552149089224486
  @DF-RHF Final Energy:  -157.35522646868992
    Total Energy =                       -157.3552264686899207
  Charge       = 0
  Multiplicity = 1
  Basis Set: AUG-CC-PVTZ
    Blend: AUG-CC-PVTZ
  Basis Set: (AUG-CC-PVTZ AUX)
    Blend: AUG-CC-PVTZ-JKFIT

    Orbital Energies (a.u.)
    -----------------------

    Doubly Occupied:

       1A    -11.211412     2A    -11.210767     3A    -11.205968
       4A    -11.205911     5A     -1.073955     6A     -0.981872
       7A     -0.861267     8A     -0.787963     9A     -0.640660
      10A     -0.585082    11A     -0.577388    12A     -0.568544
      13A     -0.513825    14A     -0.495321    15A     -0.470188
      16A     -0.460655    17A     -0.455556

  @DF-RHF Final Energy:  -157.35523360857417

   => Energetics <=

    Nuclear Repulsion Energy =            131.4777797076474428
    One-Electron Energy =                -471.0533591858794580
    Two-Electron Energy =                 182.2203458696578764
    DFT Exchange-Correlation Energy =       0.0000000000000000
    Empirical Dispersion Energy =           0.0000000000000000
    PCM Polarization Energy =               0.0000000000000000
    EFP Energy =                            0.0000000000000000
    Total Energy =                       -157.3552336085741672
  Basis Set: (AUG-CC-PVTZ AUX)
    Blend: AUG-CC-PVTZ-RI
    Molecular point group: c1
  Basis Set: AUG-CC-PVTZ
    Blend: AUG-CC-PVTZ
  Basis Set: (AUG-CC-PVTZ AUX)
    Blend: AUG-CC-PVTZ-JKFIT
  Basis Set: (AUG-CC-PVTZ AUX)
    Blend: AUG-CC-PVTZ-JKFIT
	 Reference Energy          =    -157.3552336085741672 [Eh]
	 Singles Energy            =      -0.0000000000000002 [Eh]
	 Same-Spin Energy          =      -0.1654437269646126 [Eh]
	 Opposite-Spin Energy      =      -0.6393219435335612 [Eh]
	 Correlation Energy        =      -0.8047656704981740 [Eh]
	 Total Energy              =    -158.1599992790723377 [Eh]

	 ================> DF-SCS-MP2 Energies <==================
	-----------------------------------------------------------
	 SCS Same-Spin Scale       =       0.3333333333333333 [-]
	 SCS Opposite-Spin Scale   =       1.2000000000000000 [-]
	 SCS Same-Spin Energy      =      -0.0551479089882042 [Eh]
	 SCS Opposite-Spin Energy  =      -0.7671863322402734 [Eh]
	 SCS Correlation Energy    =      -0.8223342412284779 [Eh]
	 SCS Total Energy          =    -158.1775678498026423 [Eh]
	-----------------------------------------------------------

  -Total Gradient:
     Atom            X                  Y                   Z
    ------   -----------------  -----------------  -----------------
       1       -0.000017376320    -0.000010119776     0.000000610108
       2       -0.000007955428    -0.000007202259    -0.000003884832
       3        0.000028029134     0.002807112630    -0.000051652952
       4       -0.000229146288    -0.003632104199     0.000831389038
       5        0.000011861808     0.000005313766    -0.000012434930
       6       -0.000001208404     0.000000307433    -0.000018743957
       7        0.000733257293     0.001181962519    -0.002687235485
       8        0.000013333489    -0.000000742287    -0.000007603509
       9       -0.000005955853     0.000007322443    -0.000007643760
      10       -0.000532243945    -0.000334623734     0.001934876899
      11        0.000015641591    -0.000007496701     0.000004426459
      12        0.000009600468     0.000002083822     0.000003070627
      13       -0.000003140979     0.000002982082    -0.000006748483
      14       -0.000014696565    -0.000014795736     0.000021574778

  **** Optimization is complete! (in 6 steps) ****
    Final optimized geometry and variables:
    Molecular point group: c1

    Geometry (in Angstrom), charge = 0, multiplicity = 1:

    H           -2.298979925107    -0.168175694393     0.047265317112
    H           -2.282825418169     1.589492303334    -0.015150928752
    H           -1.882251176837     0.673069794048    -1.448706633898
    C           -1.777172497895     0.692452631763    -0.366116183236
    H            0.253561343899     1.370671454108    -0.596121950717
    H           -0.212804165167     1.064840825657     1.059165964383
    C           -0.312040908075     0.688702690821     0.039742628855
    H           -0.237958747524    -1.352648716922     0.656085978578
    H            0.179186283156    -1.103827264246    -1.023422014179
    C            0.308806986219    -0.694064520583    -0.020085600284
    H            2.206677604977    -1.689421827167     0.312639465564
    H            1.925191142305    -0.296581359777     1.351144420744
    H            2.346115676767    -0.060533485576    -0.339206791669
    C            1.780749700217    -0.689348836427     0.346149011027

*** Psi4 exiting successfully. Buy a developer a beer!
