                               Psi4 1.1 release

  ==> Input File <==

--------------------------------------------------------------------------

memory 1000 mb

molecule butane {
  symmetry C1
  0 1
  H      5.540   2.365   -8.800
  H      4.340   3.383   -8.040
  H      5.102   2.102   -7.129
  C      4.738   2.391   -8.093
  H      2.829   1.442   -7.829
  H      3.266   1.705   -9.500
  C      3.631   1.416   -8.537
  H      3.665   -0.647   -7.940
  H      4.104   -0.384   -9.610
  C      4.203   -0.012   -8.612
  H      6.088   -0.983   -8.270
  H      5.791   0.381   -7.220
  H      6.230   0.644   -8.890
  C      5.691   0.009   -8.218
  units Angstrom
}

dih_string = "14 10 7 4 0.001"
set optking fixed_dihedral = $dih_string

optimize('MP2/aug-cc-pvtz')
--------------------------------------------------------------------------

    Molecular point group: c1
  Charge       = 0
  Multiplicity = 1
  Basis Set: AUG-CC-PVTZ
    Blend: AUG-CC-PVTZ
  Basis Set: (AUG-CC-PVTZ AUX)
    Blend: AUG-CC-PVTZ-JKFIT
  @DF-RHF Final Energy:  -157.33030857770254
    Total Energy =                       -157.3303085777025387
  Basis Set: (AUG-CC-PVTZ AUX)
    Blend: AUG-CC-PVTZ-RI
    Molecular point group: c1
  Basis Set: AUG-CC-PVTZ
    Blend: AUG-CC-PVTZ
  Basis Set: (AUG-CC-PVTZ AUX)
    Blend: AUG-CC-PVTZ-JKFIT
  Basis Set: (AUG-CC-PVTZ AUX)
    Blend: AUG-CC-PVTZ-JKFIT
	 Reference Energy          =    -157.3303085777025387 [Eh]
	 Singles Energy            =      -0.0000000000000001 [Eh]
	 Same-Spin Energy          =      -0.1675542136756074 [Eh]
	 Opposite-Spin Energy      =      -0.6423775429452675 [Eh]
	 Correlation Energy        =      -0.8099317566208749 [Eh]
	 Total Energy              =    -158.1402403343234084 [Eh]
	 SCS Total Energy          =    -158.1570130337954083 [Eh]
  @DF-RHF Final Energy:  -157.34088778246326
    Total Energy =                       -157.3408877824632555
  @DF-RHF Final Energy:  -157.34419542031401
    Total Energy =                       -157.3441954203140085
  @DF-RHF Final Energy:  -157.34555746868836
    Total Energy =                       -157.3455574686883551
  @DF-RHF Final Energy:  -157.34607472392361
    Total Energy =                       -157.3460747239236071
  @DF-RHF Final Energy:  -157.34613361930244
    Total Energy =                       -157.3461336193024351
  Charge       = 0
  Multiplicity = 1
  Basis Set: AUG-CC-PVTZ
    Blend: AUG-CC-PVTZ
  Basis Set: (AUG-CC-PVTZ AUX)
    Blend: AUG-CC-PVTZ-JKFIT

    Orbital Energies (a.u.)
    -----------------------

    Doubly Occupied:

       1A    -11.211894     2A    -11.211334     3A    -11.205128
       4A    -11.205122     5A     -1.068454     6A     -0.976148
       7A     -0.878660     8A     -0.768370     9A     -0.636649
      10A     -0.615094    11A     -0.564844    12A     -0.540234
      13A     -0.524148    14A     -0.514212    15A     -0.463017
      16A     -0.457293    17A     -0.443481

  @DF-RHF Final Energy:  -157.34616537031872

   => Energetics <=

    Nuclear Repulsion Energy =            133.4570825418877575
    One-Electron Energy =                -475.0383311434724192
    Two-Electron Energy =                 184.2350832312659463
    DFT Exchange-Correlation Energy =       0.0000000000000000
    Empirical Dispersion Energy =           0.0000000000000000
    PCM Polarization Energy =               0.0000000000000000
    EFP Energy =                            0.0000000000000000
    Total Energy =                       -157.3461653703187153
  Basis Set: (AUG-CC-PVTZ AUX)
    Blend: AUG-CC-PVTZ-RI
    Molecular point group: c1
  Basis Set: AUG-CC-PVTZ
    Blend: AUG-CC-PVTZ
  Basis Set: (AUG-CC-PVTZ AUX)
    Blend: AUG-CC-PVTZ-JKFIT
  Basis Set: (AUG-CC-PVTZ AUX)
    Blend: AUG-CC-PVTZ-JKFIT
	 Reference Energy          =    -157.3461653703187153 [Eh]
	 Singles Energy            =      -0.0000000000000001 [Eh]
	 Same-Spin Energy          =      -0.1657044190006176 [Eh]
	 Opposite-Spin Energy      =      -0.6406530909608564 [Eh]
	 Correlation Energy        =      -0.8063575099614742 [Eh]
	 Total Energy              =    -158.1525228802802019 [Eh]

	 ================> DF-SCS-MP2 Energies <==================
	-----------------------------------------------------------
	 SCS Same-Spin Scale       =       0.3333333333333333 [-]
	 SCS Opposite-Spin Scale   =       1.2000000000000000 [-]
	 SCS Same-Spin Energy      =      -0.0552348063335392 [Eh]
	 SCS Opposite-Spin Energy  =      -0.7687837091530277 [Eh]
	 SCS Correlation Energy    =      -0.8240185154865670 [Eh]
	 SCS Total Energy          =    -158.1701838858052724 [Eh]
	-----------------------------------------------------------

  -Total Gradient:
     Atom            X                  Y                   Z
    ------   -----------------  -----------------  -----------------
       1        0.000022123313     0.000003371782    -0.000006303416
       2        0.000007075449     0.000023417911     0.000005870758
       3        0.000017587549    -0.000005299457     0.000017071686
       4       -0.000036612334    -0.000078044460    -0.000020276885
       5       -0.000031906269    -0.000000101566     0.000010549510
       6       -0.000022381610     0.000003686598    -0.000024305720
       7        0.000075176220    -0.000022462248     0.000010975059
       8       -0.000023243588    -0.000022284784     0.000007839243
       9       -0.000012894928    -0.000015366938    -0.000026346252
      10        0.000035635034     0.000064367647     0.000027271598
      11        0.000021121255    -0.000012957815     0.000004234214
      12        0.000010101932     0.000014125473     0.000018853476
      13        0.000016193171     0.000013077583    -0.000005377225
      14       -0.000077975194     0.000034470274    -0.000020056046

  **** Optimization is complete! (in 7 steps) ****
    Final optimized geometry and variables:
    Molecular point group: c1

    Geometry (in Angstrom), charge = 0, multiplicity = 1:

    H            0.906598473372     1.644792236636    -0.392085923050
    H           -0.448164175293     2.523673065392     0.294240830387
    H            0.430970863740     1.365576601204     1.276498534517
    C            0.053275653088     1.558527190971     0.275683500136
    H           -1.770946436121     0.481403894544     0.490046612664
    H           -1.300622392922     0.757056197044    -1.159129734013
    C           -0.912978322386     0.477017537439    -0.180697250235
    H           -0.933290975877    -1.610419905568     0.379241402295
    H           -0.462778071130    -1.334701109799    -1.269872216516
    C           -0.339321051931    -0.955403077432    -0.256503567549
    H            1.423929269287    -2.150949080748     0.046859980384
    H            1.298896815680    -0.801901162579     1.161907083686
    H            1.774881512325    -0.523282480720    -0.506677188949
    C            1.121801237604    -1.109641383001     0.134555530430

*** Psi4 exiting successfully. Buy a developer a beer!
