                               Psi4 1.1 release

  ==> Input File <==

--------------------------------------------------------------------------

memory 5 Gb

molecule phepyrFOH_anion {
  symmetry C1
  -1 1
  C      1.885   -1.036   -0.112
  C      0.807   -0.463   0.561
  C      4.907   -3.081   0.571
  C      4.245   -1.941   -1.440
  C      1.800   -1.079   2.676
  C      5.960   -3.624   -0.147
  C      5.328   -2.535   -2.069
  C      2.921   -1.631   0.608
  C      4.038   -2.224   -0.095
  C      0.764   -0.484   1.955
  C      2.878   -1.652   2.002
  N      6.194   -3.372   -1.454
  O      -0.227   0.043   2.574
  F      3.866   -2.220   2.709
  H      1.904   -1.013   -1.200
  H      0.011   -0.007   -0.025
  H      4.777   -3.326   1.621
  H      3.588   -1.277   -1.993
  H      1.791   -1.109   3.764
  H      6.665   -4.299   0.327
  H      5.534   -2.345   -3.117
  units Angstrom
}

dih_string = "1 8 9 3 195"
set optking { fixed_dihedral = $dih_string
              dynamic_level = 1
              geom_maxiter = 250
              print_trajectory_xyz_file = True }

optimize('MP2/aug-cc-PVTZ')
--------------------------------------------------------------------------

    Molecular point group: c1
  Charge       = -1
  Multiplicity = 1
  Basis Set: AUG-CC-PVTZ
    Blend: AUG-CC-PVTZ
  Basis Set: (AUG-CC-PVTZ AUX)
    Blend: AUG-CC-PVTZ-JKFIT
  @DF-RHF Final Energy:  -649.60176495433927
    Total Energy =                       -649.6017649543391599
  Basis Set: (AUG-CC-PVTZ AUX)
    Blend: AUG-CC-PVTZ-RI
    Molecular point group: c1
  Basis Set: AUG-CC-PVTZ
    Blend: AUG-CC-PVTZ
  Basis Set: (AUG-CC-PVTZ AUX)
    Blend: AUG-CC-PVTZ-JKFIT
  Basis Set: (AUG-CC-PVTZ AUX)
    Blend: AUG-CC-PVTZ-JKFIT
	 Reference Energy          =    -649.6017649543392736 [Eh]
	 Singles Energy            =      -0.0000000000000001 [Eh]
	 Same-Spin Energy          =      -0.6876440479872775 [Eh]
	 Opposite-Spin Energy      =      -2.0283669307284238 [Eh]
	 Correlation Energy        =      -2.7160109787157012 [Eh]
	 Total Energy              =    -652.3177759330549179 [Eh]
	 SCS Total Energy          =    -652.2650199538758216 [Eh]
  @DF-RHF Final Energy:  -649.61139423202462
    Total Energy =                       -649.6113942320246224
  @DF-RHF Final Energy:  -649.61796643913135
    Total Energy =                       -649.6179664391313509
  @DF-RHF Final Energy:  -649.62198014745718
    Total Energy =                       -649.6219801474571796
  @DF-RHF Final Energy:  -649.62405721458003
    Total Energy =                       -649.6240572145800343
  @DF-RHF Final Energy:  -649.62508206183895
    Total Energy =                       -649.6250820618388389
  @DF-RHF Final Energy:  -649.62561251002751
    Total Energy =                       -649.6256125100273948
  @DF-RHF Final Energy:  -649.62583257518213
    Total Energy =                       -649.6258325751821303
  @DF-RHF Final Energy:  -649.62586950515879
    Total Energy =                       -649.6258695051587893
  @DF-RHF Final Energy:  -649.62589054021851
    Total Energy =                       -649.6258905402185064
  Charge       = -1
  Multiplicity = 1
  Basis Set: AUG-CC-PVTZ
    Blend: AUG-CC-PVTZ
  Basis Set: (AUG-CC-PVTZ AUX)
    Blend: AUG-CC-PVTZ-JKFIT

    Orbital Energies (a.u.)
    -----------------------

    Doubly Occupied:

       1A    -26.180541     2A    -20.334014     3A    -15.443808
       4A    -11.197654     5A    -11.161099     6A    -11.159457
       7A    -11.153232     8A    -11.149155     9A    -11.115908
      10A    -11.114008    11A    -11.110934    12A    -11.091692
      13A    -11.072501    14A    -11.070181    15A     -1.493419
      16A     -1.166062    17A     -1.142004    18A     -1.024837
      19A     -0.967404    20A     -0.917226    21A     -0.880359
      22A     -0.854061    23A     -0.745653    24A     -0.741895
      25A     -0.695562    26A     -0.679024    27A     -0.608553
      28A     -0.582263    29A     -0.567315    30A     -0.562471
      31A     -0.543158    32A     -0.523564    33A     -0.509872
      34A     -0.479231    35A     -0.475503    36A     -0.459014
      37A     -0.438635    38A     -0.433733    39A     -0.400829
      40A     -0.394085    41A     -0.391803    42A     -0.365467
      43A     -0.330706    44A     -0.307769    45A     -0.254447
      46A     -0.241714    47A     -0.236814    48A     -0.211762
      49A     -0.121225

  @DF-RHF Final Energy:  -649.62586950517198

   => Energetics <=

    Nuclear Repulsion Energy =            796.3834471344168833
    One-Electron Energy =               -2481.8153892185978293
    Two-Electron Energy =                1035.8060725790089691
    DFT Exchange-Correlation Energy =       0.0000000000000000
    Empirical Dispersion Energy =           0.0000000000000000
    PCM Polarization Energy =               0.0000000000000000
    EFP Energy =                            0.0000000000000000
    Total Energy =                       -649.6258695051719769
  Basis Set: (AUG-CC-PVTZ AUX)
    Blend: AUG-CC-PVTZ-RI
    Molecular point group: c1
  Basis Set: AUG-CC-PVTZ
    Blend: AUG-CC-PVTZ
  Basis Set: (AUG-CC-PVTZ AUX)
    Blend: AUG-CC-PVTZ-JKFIT
  Basis Set: (AUG-CC-PVTZ AUX)
    Blend: AUG-CC-PVTZ-JKFIT
	 Reference Energy          =    -649.6258695051719769 [Eh]
	 Singles Energy            =      -0.0000000000000002 [Eh]
	 Same-Spin Energy          =      -0.6847218264783147 [Eh]
	 Opposite-Spin Energy      =      -2.0254144634335987 [Eh]
	 Correlation Energy        =      -2.7101362899119139 [Eh]
	 Total Energy              =    -652.3360057950839064 [Eh]

	 ================> DF-SCS-MP2 Energies <==================
	-----------------------------------------------------------
	 SCS Same-Spin Scale       =       0.3333333333333333 [-]
	 SCS Opposite-Spin Scale   =       1.2000000000000000 [-]
	 SCS Same-Spin Energy      =      -0.2282406088261049 [Eh]
	 SCS Opposite-Spin Energy  =      -2.4304973561203185 [Eh]
	 SCS Correlation Energy    =      -2.6587379649464240 [Eh]
	 SCS Total Energy          =    -652.2846074701184307 [Eh]
	-----------------------------------------------------------

  -Total Gradient:
     Atom            X                  Y                   Z
    ------   -----------------  -----------------  -----------------
       1        0.000523361417     0.000787566500     0.000026949075
       2       -0.000012245911    -0.000031492176     0.000032032298
       3        0.000504398334     0.000886551235     0.000278298691
       4        0.000037776782    -0.000008249832    -0.000031056160
       5       -0.000040368717     0.000020283272     0.000097674413
       6        0.000046475756     0.000022429042    -0.000017558350
       7       -0.000165192073     0.000065384010    -0.000045623464
       8       -0.000378072520    -0.000762757547     0.000058652716
       9       -0.000657473696    -0.000868563771    -0.000255153973
      10        0.000155395232     0.000040495915    -0.000088459906
      11       -0.000180702147    -0.000085893282    -0.000168255847
      12        0.000104433491    -0.000053028575     0.000050518511
      13       -0.000045161104    -0.000027694979    -0.000007693291
      14        0.000154377538    -0.000012628420     0.000067658103
      15        0.000014148565     0.000032803043    -0.000026005708
      16       -0.000026954697     0.000025094794     0.000027565737
      17        0.000010610703    -0.000026408532     0.000004754937
      18       -0.000025385597     0.000014568043    -0.000017275048
      19        0.000001810169     0.000008438101    -0.000000441138
      20       -0.000028578944    -0.000027934862     0.000007944578
      21        0.000007347415     0.000001038027     0.000005473844

  **** Optimization is complete! (in 10 steps) ****
    Final optimized geometry and variables:
    Molecular point group: c1

    Geometry (in Angstrom), charge = -1, multiplicity = 1:

    C           -1.337679151980     0.751592036981    -0.730373970660
    C           -2.412731633470     1.339465897963    -0.114328183053
    C            1.765625509409    -1.342947129086    -0.165149124256
    C            1.081277243991    -0.181612771052    -2.095057276484
    C           -1.470696864443     0.767211016738     2.012849460503
    C            2.795250471262    -1.876532921766    -0.919613437517
    C            2.137375941853    -0.765826672169    -2.766955315754
    C           -0.275609073114     0.132294810282    -0.036494322160
    C            0.837271479687    -0.457762790195    -0.738784059188
    C           -2.554940399666     1.391572634466     1.314324863429
    C           -0.423733521839     0.184676224279     1.356149062791
    N            3.012140895175    -1.616123686001    -2.214153076221
    O           -3.534019500064     1.928531759866     1.896633335733
    F            0.564350074871    -0.346335869373     2.145823548871
    H           -1.325814512849     0.732911184079    -1.810783937274
    H           -3.202309595376     1.779531688407    -0.707186419745
    H            1.677126982293    -1.631310285401     0.866795388291
    H            0.456287261657     0.513095413614    -2.633010376755
    H           -1.478433685389     0.764092242868     3.091905586724
    H            3.489928408921    -2.562278073248    -0.450650979203
    H            2.296680212441    -0.530467069758    -3.811956877752

*** Psi4 exiting successfully. Buy a developer a beer!
