                              Psi4 1.0.0 Driver

  ==> Input File <==

--------------------------------------------------------------------------

memory 1000 mb

molecule butane {
  symmetry C1
  0 1
  H      1.604   0.760   -8.260
  H      1.745   2.388   -8.880
  H      2.043   1.024   -9.930
  C      2.142   1.395   -8.932
  H      4.169   2.051   -9.210
  H      3.731   1.788   -7.539
  C      3.631   1.416   -8.537
  H      3.950   -0.448   -9.556
  H      5.267   0.024   -8.510
  C      4.203   -0.012   -8.612
  H      4.005   -1.856   -7.529
  H      2.543   -0.901   -7.579
  H      3.860   -0.429   -6.532
  C      3.607   -0.865   -7.477
  units Angstrom
}

dih_string = "4 7 10 14 290"
set optking fixed_dihedral = $dih_string

optimize('B3LYP/cc-PVDZ')
--------------------------------------------------------------------------

    Molecular point group: c1
  Charge       = 0
  Multiplicity = 1
  Basis Set: CC-PVDZ
   => B3LYP Composite Functional <=
  Basis Set:
  @DF-RKS Final Energy:  -158.44707947302103
    Total Energy =                       -158.4470794730210343
    Molecular point group: c1
  Basis Set: CC-PVDZ
  Basis Set:
   => B3LYP Composite Functional <=
  Basis Set: CC-PVDZ
   => B3LYP Composite Functional <=
  Basis Set:
  @DF-RKS Final Energy:  -158.45322729761031
    Total Energy =                       -158.4532272976103116
  Basis Set: CC-PVDZ
  Basis Set:
   => B3LYP Composite Functional <=
  Basis Set: CC-PVDZ
   => B3LYP Composite Functional <=
  Basis Set:
  @DF-RKS Final Energy:  -158.45621731295699
    Total Energy =                       -158.4562173129569942
  Basis Set: CC-PVDZ
  Basis Set:
  @DF-RKS Final Energy:  -158.45717893532614
    Total Energy =                       -158.4571789353261408
   => B3LYP Composite Functional <=
  Basis Set:
  @DF-RKS Final Energy:  -158.45740418368800
    Total Energy =                       -158.4574041836879985
  Basis Set: CC-PVDZ
  Basis Set:
   => B3LYP Composite Functional <=
  Basis Set: CC-PVDZ
   => B3LYP Composite Functional <=
  Basis Set:
  @DF-RKS Final Energy:  -158.45741418863921
    Total Energy =                       -158.4574141886392056
  Basis Set: CC-PVDZ
  Basis Set:
   => B3LYP Composite Functional <=
  Charge       = 0
  Multiplicity = 1
  Basis Set: CC-PVDZ
   => B3LYP Composite Functional <=
  Basis Set:

    Orbital Energies (a.u.)
    -----------------------

    Doubly Occupied:

       1A    -10.180482     2A    -10.180309     3A    -10.175485
       4A    -10.175479     5A     -0.790166     6A     -0.716980
       7A     -0.636244     8A     -0.563360     9A     -0.450690
      10A     -0.450216    11A     -0.413605    12A     -0.379851
      13A     -0.379218    14A     -0.356956    15A     -0.323183
      16A     -0.320407    17A     -0.318712

  @DF-RKS Final Energy:  -158.45741497628794

   => Energetics <=

    Nuclear Repulsion Energy =            131.5155123702928393
    One-Electron Energy =                -471.5250368782228065
    Two-Electron Energy =                 202.1357569520870641
    DFT Exchange-Correlation Energy =     -20.5836474204450148
    Empirical Dispersion Energy =           0.0000000000000000
    PCM Polarization Energy =               0.0000000000000000
    EFP Energy =                            0.0000000000000000
    Total Energy =                       -158.4574149762879358
    Molecular point group: c1
  Basis Set: CC-PVDZ
  Basis Set:
   => B3LYP Composite Functional <=

  -Total Gradient:
     Atom            X                  Y                   Z
    ------   -----------------  -----------------  -----------------
       1        0.000004218562     0.000003951894    -0.000002161661
       2       -0.000002898744    -0.000000806429    -0.000001910815
       3       -0.000001155812     0.000003233381     0.000005535192
       4        0.000167776865     0.000063290077    -0.000560618527
       5        0.000003594543    -0.000003470331     0.000010886527
       6       -0.000010243732    -0.000000709774    -0.000005742802
       7       -0.000054217952    -0.000012213375     0.000924819526
       8       -0.000002797907    -0.000004672164     0.000010370238
       9       -0.000006543320     0.000002371092    -0.000009846978
      10       -0.000541946763    -0.000238052788    -0.000712874788
      11       -0.000000997145    -0.000000978168     0.000003175423
      12        0.000006163090     0.000000311280    -0.000001607022
      13       -0.000001569065    -0.000004532433    -0.000004855420
      14        0.000436834494     0.000190691189     0.000346177026

  **** Optimization is complete! (in 7 steps) ****
    Final optimized geometry and variables:
    Molecular point group: c1

    Geometry (in Angstrom), charge = 0, multiplicity = 1:

    H           -1.898327445168     0.432502079707     0.118227690864
    H           -1.616083048523     2.043693051953    -0.571879904911
    H           -1.414948000456     0.594974528057    -1.585854703356
    C           -1.254905462628     1.002272814486    -0.572463540615
    H            0.808628651034     1.561089816504    -0.865125683904
    H            0.360832445451     1.365060701975     0.830383044888
    C            0.223016872364     0.926727546472    -0.175890374352
    H            0.618472295909    -0.954632070205    -1.178684903840
    H            1.910854658597    -0.421347690386    -0.102090777758
    C            0.812151305927    -0.492886653657    -0.192279979391
    H            0.761840628258    -2.401707902178     0.875697022243
    H           -0.803549308769    -1.564861408001     0.842728677302
    H            0.490990975980    -0.982210799432     1.914472599406
    C            0.285354097045    -1.408613547460     0.917296608812

*** Psi4 exiting successfully. Buy a developer a beer!
