                               Psi4 1.1 release

  ==> Input File <==

--------------------------------------------------------------------------

memory 5 Gb

molecule phepyrOH_cation {
  symmetry C1
  1 1
  C      1.885   -1.036   -0.112
  C      2.878   -1.652   2.002
  C      0.807   -0.463   0.561
  C      1.800   -1.079   2.676
  C      4.440   -1.719   -1.322
  C      4.716   -3.305   0.469
  C      5.516   -2.309   -1.970
  C      5.786   -3.855   -0.224
  C      2.921   -1.631   0.608
  C      4.040   -2.225   -0.090
  C      0.764   -0.484   1.955
  N      6.150   -3.348   -1.409
  O      -0.288   0.076   2.612
  H      1.904   -1.012   -1.199
  H      3.678   -2.112   2.578
  H      0.003   -0.001   -0.006
  H      1.772   -1.098   3.762
  H      3.931   -0.877   -1.782
  H      4.425   -3.721   1.429
  H      5.897   -1.982   -2.928
  H      6.368   -4.693   0.134
  H      6.938   -3.767   -1.902
  H      -0.445   -0.385   3.452
  units Angstrom
}

dih_string = "3 11 13 23 150"
set optking fixed_dihedral = $dih_string

optimize('MP2/aug-cc-PVTZ')
--------------------------------------------------------------------------

    Molecular point group: c1
  Charge       = 1
  Multiplicity = 1
  Basis Set: AUG-CC-PVTZ
    Blend: AUG-CC-PVTZ
  Basis Set: (AUG-CC-PVTZ AUX)
    Blend: AUG-CC-PVTZ-JKFIT
  @DF-RHF Final Energy:  -551.67449242079431
    Total Energy =                       -551.6744924207943086
  Basis Set: (AUG-CC-PVTZ AUX)
    Blend: AUG-CC-PVTZ-RI
    Molecular point group: c1
  Basis Set: AUG-CC-PVTZ
    Blend: AUG-CC-PVTZ
  Basis Set: (AUG-CC-PVTZ AUX)
    Blend: AUG-CC-PVTZ-JKFIT
  Basis Set: (AUG-CC-PVTZ AUX)
    Blend: AUG-CC-PVTZ-JKFIT
	 Reference Energy          =    -551.6744924207943086 [Eh]
	 Singles Energy            =      -0.0000000000000001 [Eh]
	 Same-Spin Energy          =      -0.5965564480332326 [Eh]
	 Opposite-Spin Energy      =      -1.8252839841045956 [Eh]
	 Correlation Energy        =      -2.4218404321378282 [Eh]
	 Total Energy              =    -554.0963328529321643 [Eh]
	 SCS Total Energy          =    -554.0636853510642368 [Eh]
  @DF-RHF Final Energy:  -551.67987416556264
    Total Energy =                       -551.6798741655626372
  @DF-RHF Final Energy:  -551.68108975707082
    Total Energy =                       -551.6810897570708221
  @DF-RHF Final Energy:  -551.68105901549802
    Total Energy =                       -551.6810590154980218
  @DF-RHF Final Energy:  -551.68106158228511
    Total Energy =                       -551.6810615822851105
  @DF-RHF Final Energy:  -551.68106983356199
    Total Energy =                       -551.6810698335619918
  @DF-RHF Final Energy:  -551.68106505316473
    Total Energy =                       -551.6810650531647298
  Charge       = 1
  Multiplicity = 1
  Basis Set: AUG-CC-PVTZ
    Blend: AUG-CC-PVTZ
  Basis Set: (AUG-CC-PVTZ AUX)
    Blend: AUG-CC-PVTZ-JKFIT

    Orbital Energies (a.u.)
    -----------------------

    Doubly Occupied:

       1A    -20.704250     2A    -15.827059     3A    -11.479129
       4A    -11.478981     5A    -11.449726     6A    -11.433974
       7A    -11.409191     8A    -11.408820     9A    -11.380135
      10A    -11.377224    11A    -11.374066    12A    -11.355698
      13A    -11.349959    14A     -1.526988    15A     -1.506149
      16A     -1.318823    17A     -1.266744    18A     -1.237189
      19A     -1.157387    20A     -1.156519    21A     -1.062188
      22A     -1.057778    23A     -0.977820    24A     -0.961550
      25A     -0.954369    26A     -0.872098    27A     -0.862011
      28A     -0.855759    29A     -0.819796    30A     -0.800081
      31A     -0.782163    32A     -0.770879    33A     -0.758674
      34A     -0.738308    35A     -0.726331    36A     -0.712833
      37A     -0.701940    38A     -0.672638    39A     -0.661473
      40A     -0.642832    41A     -0.614076    42A     -0.569991
      43A     -0.538807    44A     -0.474036    45A     -0.439498

  @DF-RHF Final Energy:  -551.68106853612517

   => Energetics <=

    Nuclear Repulsion Energy =            713.4427397362991314
    One-Electron Energy =               -2149.7957336777171804
    Two-Electron Energy =                 884.6719254052927681
    DFT Exchange-Correlation Energy =       0.0000000000000000
    Empirical Dispersion Energy =           0.0000000000000000
    PCM Polarization Energy =               0.0000000000000000
    EFP Energy =                            0.0000000000000000
    Total Energy =                       -551.6810685361251672
  Basis Set: (AUG-CC-PVTZ AUX)
    Blend: AUG-CC-PVTZ-RI
    Molecular point group: c1
  Basis Set: AUG-CC-PVTZ
    Blend: AUG-CC-PVTZ
  Basis Set: (AUG-CC-PVTZ AUX)
    Blend: AUG-CC-PVTZ-JKFIT
  Basis Set: (AUG-CC-PVTZ AUX)
    Blend: AUG-CC-PVTZ-JKFIT
	 Reference Energy          =    -551.6810685361251672 [Eh]
	 Singles Energy            =      -0.0000000000000001 [Eh]
	 Same-Spin Energy          =      -0.5956902941671613 [Eh]
	 Opposite-Spin Energy      =      -1.8232618955567486 [Eh]
	 Correlation Energy        =      -2.4189521897239099 [Eh]
	 Total Energy              =    -554.1000207258490491 [Eh]

	 ================> DF-SCS-MP2 Energies <==================
	-----------------------------------------------------------
	 SCS Same-Spin Scale       =       0.3333333333333333 [-]
	 SCS Opposite-Spin Scale   =       1.2000000000000000 [-]
	 SCS Same-Spin Energy      =      -0.1985634313890538 [Eh]
	 SCS Opposite-Spin Energy  =      -2.1879142746680982 [Eh]
	 SCS Correlation Energy    =      -2.3864777060571520 [Eh]
	 SCS Total Energy          =    -554.0675462421822886 [Eh]
	-----------------------------------------------------------

  -Total Gradient:
     Atom            X                  Y                   Z
    ------   -----------------  -----------------  -----------------
       1       -0.000007430418     0.000020484655    -0.000000187591
       2       -0.000007942524    -0.000015202646    -0.000016324466
       3       -0.001641174436    -0.002870034065    -0.000139054025
       4       -0.000011654337     0.000005108365     0.000004726292
       5       -0.000009309437     0.000006694767     0.000005819544
       6       -0.000012850180     0.000009554353     0.000003052797
       7       -0.000003856829    -0.000016473710     0.000004787572
       8        0.000002877183     0.000011808532    -0.000009276017
       9        0.000011288053    -0.000000616408     0.000013318989
      10        0.000007896590    -0.000009908003    -0.000001723723
      11        0.001750982171     0.003522843860    -0.000359350388
      12        0.000002388392     0.000001179549    -0.000000630335
      13        0.002745706758     0.002169237156     0.002612441693
      14       -0.000003441887    -0.000001665864    -0.000002317861
      15        0.000003112372    -0.000000349864     0.000005125171
      16       -0.000014058298    -0.000006232698     0.000003035570
      17       -0.000006196497    -0.000012050182     0.000002407567
      18        0.000003943332     0.000006033914    -0.000004092621
      19        0.000001560568    -0.000006289581     0.000006052968
      20        0.000003224192     0.000000960231    -0.000001921580
      21        0.000001647574    -0.000002711477    -0.000000736057
      22        0.000005496563    -0.000002430089    -0.000002977539
      23       -0.002822208916    -0.002809940796    -0.002122175953

  **** Optimization is complete! (in 8 steps) ****
    Final optimized geometry and variables:
    Molecular point group: c1

    Geometry (in Angstrom), charge = 1, multiplicity = 1:

    C           -1.280759407076     0.759283456879    -0.521099544049
    C           -0.286502909956     0.059004563383     1.555073173885
    C           -2.340210913242     1.308233264206     0.168340112013
    C           -1.331277713975     0.633177246573     2.250225665152
    C            1.245353369582     0.010561457816    -1.830837209077
    C            1.612775814114    -1.527501845351    -0.042457153365
    C            2.295404433826    -0.553236212782    -2.509562148182
    C            2.659269290175    -2.068508519762    -0.744757555077
    C           -0.237181797928     0.120880171722     0.159058816384
    C            0.867167154039    -0.462467110964    -0.566555347593
    C           -2.363987469493     1.263577072704     1.559930849678
    N            2.972080908975    -1.571596007365    -1.953074746813
    O           -3.411103311897     1.846515320043     2.177243633983
    H           -1.299407566034     0.778586909430    -1.600229705701
    H            0.520674886858    -0.391166827195     2.112863603183
    H           -3.163296191053     1.773990516950    -0.350077784638
    H           -1.341343103462     0.610308455289     3.329760795221
    H            0.737709293736     0.847104545435    -2.281567065471
    H            1.359668278384    -1.962777922159     0.909980308447
    H            2.627997733213    -0.217747225787    -3.477699967878
    H            3.253956433929    -2.892603936892    -0.387464049828
    H            3.745369036334    -1.979093171175    -2.462430258774
    H           -3.602106691029     1.405544456109     3.012121294104

*** Psi4 exiting successfully. Buy a developer a beer!
