                              Psi4 1.0.0 Driver

  ==> Input File <==

--------------------------------------------------------------------------

memory 1000 mb

molecule butane {
  symmetry C1
  0 1
  H      1.604   0.760   -8.260
  H      1.745   2.388   -8.880
  H      2.043   1.024   -9.930
  C      2.142   1.395   -8.932
  H      4.169   2.051   -9.210
  H      3.731   1.788   -7.539
  C      3.631   1.416   -8.537
  H      3.561   -0.681   -8.078
  H      4.266   -0.318   -9.635
  C      4.203   -0.012   -8.612
  H      6.005   -1.029   -8.035
  H      5.546   0.269   -6.960
  H      6.250   0.633   -8.516
  C      5.608   -0.037   -7.983
  units Angstrom
}

dih_string = "4 7 10 14 190"
set optking fixed_dihedral = $dih_string

optimize('B3LYP/cc-PVDZ')
--------------------------------------------------------------------------

    Molecular point group: c1
  Charge       = 0
  Multiplicity = 1
  Basis Set: CC-PVDZ
   => B3LYP Composite Functional <=
  Basis Set:
  @DF-RKS Final Energy:  -158.44900496465246
    Total Energy =                       -158.4490049646524596
    Molecular point group: c1
  Basis Set: CC-PVDZ
  Basis Set:
   => B3LYP Composite Functional <=
  Basis Set: CC-PVDZ
   => B3LYP Composite Functional <=
  Basis Set:
  @DF-RKS Final Energy:  -158.45485242151057
    Total Energy =                       -158.4548524215105658
  Basis Set: CC-PVDZ
  Basis Set:
   => B3LYP Composite Functional <=
  Basis Set: CC-PVDZ
   => B3LYP Composite Functional <=
  Basis Set:
  @DF-RKS Final Energy:  -158.45755496084371
    Total Energy =                       -158.4575549608437086
  Basis Set: CC-PVDZ
  Basis Set:
   => B3LYP Composite Functional <=
  Basis Set:
  @DF-RKS Final Energy:  -158.45837258223236
    Total Energy =                       -158.4583725822323572
  Basis Set: CC-PVDZ
  Basis Set:
   => B3LYP Composite Functional <=
  Basis Set: CC-PVDZ
   => B3LYP Composite Functional <=
  Basis Set:
  @DF-RKS Final Energy:  -158.45855615851627
    Total Energy =                       -158.4585561585162736
  Basis Set: CC-PVDZ
  Basis Set:
   => B3LYP Composite Functional <=
  Charge       = 0
  Multiplicity = 1
  Basis Set: CC-PVDZ
   => B3LYP Composite Functional <=
  Basis Set:

    Orbital Energies (a.u.)
    -----------------------

    Doubly Occupied:

       1A    -10.180271     2A    -10.180105     3A    -10.175960
       4A    -10.175953     5A     -0.790561     6A     -0.720622
       7A     -0.627081     8A     -0.571986     9A     -0.463307
      10A     -0.422370    11A     -0.416886    12A     -0.405870
      13A     -0.365452    14A     -0.347630    15A     -0.331731
      16A     -0.320649    17A     -0.319267

  @DF-RKS Final Energy:  -158.45856334212601

   => Energetics <=

    Nuclear Repulsion Energy =            129.9254445938637446
    One-Electron Energy =                -468.3386148393331041
    Two-Electron Energy =                 200.5379269850234891
    DFT Exchange-Correlation Energy =     -20.5833200816801423
    Empirical Dispersion Energy =           0.0000000000000000
    PCM Polarization Energy =               0.0000000000000000
    EFP Energy =                            0.0000000000000000
    Total Energy =                       -158.4585633421260127
    Molecular point group: c1
  Basis Set: CC-PVDZ
  Basis Set:
   => B3LYP Composite Functional <=

  -Total Gradient:
     Atom            X                  Y                   Z
    ------   -----------------  -----------------  -----------------
       1       -0.000039690464    -0.000020093310     0.000028293699
       2       -0.000035073131     0.000053658886     0.000000136682
       3       -0.000020888093    -0.000016001033    -0.000046924598
       4       -0.000269393935    -0.000228318810     0.001329104741
       5        0.000010335428    -0.000010447546    -0.000039528406
       6        0.000014070562    -0.000031310649    -0.000015698913
       7        0.000239009306     0.000250205218    -0.001296774084
       8       -0.000004835632     0.000036316728    -0.000009633840
       9        0.000014318835     0.000023732543    -0.000031979386
      10        0.000630291885     0.000228308220    -0.001162359110
      11        0.000034077614    -0.000055918139     0.000003295214
      12        0.000010369366     0.000004694116     0.000051635065
      13        0.000040503656     0.000025957053    -0.000014648206
      14       -0.000619904582    -0.000259027865     0.001196063223

  **** Optimization is complete! (in 6 steps) ****
    Final optimized geometry and variables:
    Molecular point group: c1

    Geometry (in Angstrom), charge = 0, multiplicity = 1:

    H           -2.372180707934     0.088518414738     0.253572653517
    H           -2.196968612658     1.737602868811    -0.393807672637
    H           -1.923184241196     0.331927860630    -1.449735376024
    C           -1.775302943018     0.719760956797    -0.426852048804
    H            0.273050070285     1.393200566893    -0.690616455239
    H           -0.190672910976     1.115832917804     0.989238150471
    C           -0.296198530762     0.709227768227    -0.034192860825
    H           -0.320347377381    -1.396730614073     0.454503703641
    H            0.371069988587    -1.039164041925    -1.129153361671
    C            0.337180160412    -0.686708463317    -0.081592404732
    H            2.169116367645    -1.752910264005     0.472523316689
    H            1.717278541064    -0.448460254281     1.596600537026
    H            2.430521358586    -0.053064340802     0.016391565896
    C            1.737875368365    -0.740327862219     0.532599623818

*** Psi4 exiting successfully. Buy a developer a beer!
