                               Psi4 1.1 release

  ==> Input File <==

--------------------------------------------------------------------------

memory 5 Gb

molecule phepyrOH_cation {
  symmetry C1
  1 1
  C      1.885   -1.036   -0.112
  C      2.878   -1.652   2.002
  C      0.807   -0.463   0.561
  C      1.800   -1.079   2.676
  C      4.440   -1.719   -1.322
  C      4.716   -3.305   0.469
  C      5.516   -2.309   -1.970
  C      5.786   -3.855   -0.224
  C      2.921   -1.631   0.608
  C      4.040   -2.225   -0.090
  C      0.764   -0.484   1.955
  N      6.150   -3.348   -1.409
  O      -0.288   0.076   2.612
  H      1.904   -1.012   -1.199
  H      3.678   -2.112   2.578
  H      0.003   -0.001   -0.006
  H      1.772   -1.098   3.762
  H      3.931   -0.877   -1.782
  H      4.425   -3.721   1.429
  H      5.897   -1.982   -2.928
  H      6.368   -4.693   0.134
  H      6.938   -3.767   -1.902
  H      -0.742   -0.592   3.151
  units Angstrom
}

dih_string = "3 11 13 23 120"
set optking fixed_dihedral = $dih_string

optimize('MP2/aug-cc-PVTZ')
--------------------------------------------------------------------------

    Molecular point group: c1
  Charge       = 1
  Multiplicity = 1
  Basis Set: AUG-CC-PVTZ
    Blend: AUG-CC-PVTZ
  Basis Set: (AUG-CC-PVTZ AUX)
    Blend: AUG-CC-PVTZ-JKFIT
  @DF-RHF Final Energy:  -551.67162264327771
    Total Energy =                       -551.6716226432777148
  Basis Set: (AUG-CC-PVTZ AUX)
    Blend: AUG-CC-PVTZ-RI
    Molecular point group: c1
  Basis Set: AUG-CC-PVTZ
    Blend: AUG-CC-PVTZ
  Basis Set: (AUG-CC-PVTZ AUX)
    Blend: AUG-CC-PVTZ-JKFIT
  Basis Set: (AUG-CC-PVTZ AUX)
    Blend: AUG-CC-PVTZ-JKFIT
	 Reference Energy          =    -551.6716226432777148 [Eh]
	 Singles Energy            =      -0.0000000000000002 [Eh]
	 Same-Spin Energy          =      -0.5962610034999585 [Eh]
	 Opposite-Spin Energy      =      -1.8248063934056826 [Eh]
	 Correlation Energy        =      -2.4210673969056411 [Eh]
	 Total Energy              =    -554.0926900401833564 [Eh]
	 SCS Total Energy          =    -554.0601439831978041 [Eh]
  @DF-RHF Final Energy:  -551.67657254918038
    Total Energy =                       -551.6765725491803778
  @DF-RHF Final Energy:  -551.67734304995565
    Total Energy =                       -551.6773430499556525
  @DF-RHF Final Energy:  -551.67727935362143
    Total Energy =                       -551.6772793536214294
  @DF-RHF Final Energy:  -551.67728883199607
    Total Energy =                       -551.6772888319960657
  Charge       = 1
  Multiplicity = 1
  Basis Set: AUG-CC-PVTZ
    Blend: AUG-CC-PVTZ
  Basis Set: (AUG-CC-PVTZ AUX)
    Blend: AUG-CC-PVTZ-JKFIT

    Orbital Energies (a.u.)
    -----------------------

    Doubly Occupied:

       1A    -20.692566     2A    -15.830098     3A    -11.481385
       4A    -11.481245     5A    -11.451354     6A    -11.427598
       7A    -11.411506     8A    -11.411222     9A    -11.378282
      10A    -11.377205    11A    -11.376109    12A    -11.354623
      13A    -11.351439    14A     -1.513826    15A     -1.508806
      16A     -1.320122    17A     -1.266999    18A     -1.239481
      19A     -1.157218    20A     -1.155306    21A     -1.064330
      22A     -1.058251    23A     -0.973276    24A     -0.963490
      25A     -0.953822    26A     -0.868691    27A     -0.862618
      28A     -0.855536    29A     -0.819531    30A     -0.802013
      31A     -0.780925    32A     -0.771172    33A     -0.758598
      34A     -0.747786    35A     -0.726191    36A     -0.709865
      37A     -0.703121    38A     -0.662230    39A     -0.651778
      40A     -0.645418    41A     -0.599917    42A     -0.573482
      43A     -0.540463    44A     -0.472028    45A     -0.446762

  @DF-RHF Final Energy:  -551.67728294446999

   => Energetics <=

    Nuclear Repulsion Energy =            713.1072430608752484
    One-Electron Energy =               -2149.1736866974988516
    Two-Electron Energy =                 884.3891606921537232
    DFT Exchange-Correlation Energy =       0.0000000000000000
    Empirical Dispersion Energy =           0.0000000000000000
    PCM Polarization Energy =               0.0000000000000000
    EFP Energy =                            0.0000000000000000
    Total Energy =                       -551.6772829444699937
  Basis Set: (AUG-CC-PVTZ AUX)
    Blend: AUG-CC-PVTZ-RI
    Molecular point group: c1
  Basis Set: AUG-CC-PVTZ
    Blend: AUG-CC-PVTZ
  Basis Set: (AUG-CC-PVTZ AUX)
    Blend: AUG-CC-PVTZ-JKFIT
  Basis Set: (AUG-CC-PVTZ AUX)
    Blend: AUG-CC-PVTZ-JKFIT
	 Reference Energy          =    -551.6772829444699937 [Eh]
	 Singles Energy            =      -0.0000000000000001 [Eh]
	 Same-Spin Energy          =      -0.5954723295490815 [Eh]
	 Opposite-Spin Energy      =      -1.8230129434799847 [Eh]
	 Correlation Energy        =      -2.4184852730290660 [Eh]
	 Total Energy              =    -554.0957682174990850 [Eh]

	 ================> DF-SCS-MP2 Energies <==================
	-----------------------------------------------------------
	 SCS Same-Spin Scale       =       0.3333333333333333 [-]
	 SCS Opposite-Spin Scale   =       1.2000000000000000 [-]
	 SCS Same-Spin Energy      =      -0.1984907765163605 [Eh]
	 SCS Opposite-Spin Energy  =      -2.1876155321759816 [Eh]
	 SCS Correlation Energy    =      -2.3861063086923422 [Eh]
	 SCS Total Energy          =    -554.0633892531623133 [Eh]
	-----------------------------------------------------------

  -Total Gradient:
     Atom            X                  Y                   Z
    ------   -----------------  -----------------  -----------------
       1       -0.000070053130     0.000024723104    -0.000014783291
       2       -0.000016059051     0.000038697985     0.000043969609
       3       -0.001555277802    -0.002622654318    -0.000170173000
       4        0.000033250989     0.000021884236     0.000007921018
       5        0.000050519776     0.000003441720    -0.000020656797
       6        0.000031022635    -0.000043493112    -0.000028811128
       7       -0.000003446125     0.000005433905     0.000023427912
       8       -0.000030035432     0.000001940643     0.000006576007
       9        0.000062812999    -0.000045896501    -0.000026863414
      10       -0.000085841670     0.000042445865     0.000056468746
      11        0.001766291146     0.003642060767    -0.000647464961
      12        0.000003397806     0.000005377131    -0.000010733591
      13        0.002278763775    -0.000239404493     0.004022859205
      14        0.000028498682    -0.000023826495    -0.000003792359
      15        0.000015556716    -0.000015778193    -0.000024477768
      16       -0.000008278544     0.000021419216     0.000030169978
      17       -0.000032293388    -0.000015026342     0.000000235893
      18       -0.000024039557     0.000007780356     0.000004342498
      19       -0.000011038370     0.000012552172     0.000015764535
      20       -0.000007547515    -0.000009908037    -0.000006032105
      21        0.000010819434     0.000009699986     0.000003096995
      22        0.000002898060     0.000000081369    -0.000001287618
      23       -0.002439921442    -0.000821550976    -0.003259756364

  **** Optimization is complete! (in 6 steps) ****
    Final optimized geometry and variables:
    Molecular point group: c1

    Geometry (in Angstrom), charge = 1, multiplicity = 1:

    C           -1.276582288809     0.741592837749    -0.556238545753
    C           -0.310555825381     0.076509481763     1.547622927798
    C           -2.350874834063     1.294509695676     0.111498438008
    C           -1.370699962785     0.654811540155     2.217505372651
    C            1.292731368017     0.013752457698    -1.798013298586
    C            1.602421731290    -1.537916538084    -0.009859088328
    C            2.359045200754    -0.551109277612    -2.451032724626
    C            2.665950030126    -2.079957654648    -0.686248396791
    C           -0.243397737235     0.119417714729     0.151642420970
    C            0.878626955438    -0.466406867522    -0.548779704770
    C           -2.396755020108     1.264143890383     1.501049359552
    N            3.014004307627    -1.576167741503    -1.881688450675
    O           -3.440544612476     1.870908000602     2.126703702786
    H           -1.273684155281     0.746824340966    -1.635848417036
    H            0.493608342147    -0.359534952828     2.121059692441
    H           -3.164980164110     1.755219032513    -0.425208439944
    H           -1.404004406040     0.657097998775     3.296097841858
    H            0.800457080240     0.855809507969    -2.255771719653
    H            1.319445435194    -1.975715198824     0.933104746105
    H            2.720718729102    -0.211880475411    -3.407372104099
    H            3.247318735477    -2.908803357038    -0.318182308300
    H            3.799699778914    -1.984090980101    -2.371757551192
    H           -3.931999403520     1.236214415161     2.658095911854

*** Psi4 exiting successfully. Buy a developer a beer!
