                               Psi4 1.1 release

  ==> Input File <==

--------------------------------------------------------------------------

memory 5 Gb

molecule phepyrOH_zwitterion {
  symmetry C1
  0 1
  C      1.885   -1.036   -0.112
  C      2.878   -1.652   2.002
  C      0.807   -0.463   0.561
  C      1.800   -1.079   2.676
  C      3.859   -2.774   -1.356
  C      5.298   -2.251   0.503
  C      4.950   -3.338   -2.002
  C      6.353   -2.829   -0.190
  C      2.921   -1.631   0.608
  C      4.040   -2.226   -0.090
  C      0.764   -0.484   1.955
  N      6.150   -3.349   -1.408
  O      -0.227   0.042   2.574
  H      1.904   -1.011   -1.199
  H      3.678   -2.112   2.577
  H      0.011   -0.006   -0.025
  H      1.791   -1.108   3.764
  H      2.888   -2.767   -1.844
  H      5.468   -1.832   1.491
  H      4.903   -3.785   -2.986
  H      7.362   -2.893   0.193
  H      6.939   -3.770   -1.900
  units Angstrom
}

dih_string = "1 9 10 5 330"
set optking fixed_dihedral = $dih_string

optimize('MP2/aug-cc-PVTZ')
--------------------------------------------------------------------------

    Molecular point group: c1
  Charge       = 0
  Multiplicity = 1
  Basis Set: AUG-CC-PVTZ
    Blend: AUG-CC-PVTZ
  Basis Set: (AUG-CC-PVTZ AUX)
    Blend: AUG-CC-PVTZ-JKFIT
  @DF-RHF Final Energy:  -551.21455541833029
    Total Energy =                       -551.2145554183302920
  Basis Set: (AUG-CC-PVTZ AUX)
    Blend: AUG-CC-PVTZ-RI
    Molecular point group: c1
  Basis Set: AUG-CC-PVTZ
    Blend: AUG-CC-PVTZ
  Basis Set: (AUG-CC-PVTZ AUX)
    Blend: AUG-CC-PVTZ-JKFIT
  Basis Set: (AUG-CC-PVTZ AUX)
    Blend: AUG-CC-PVTZ-JKFIT
	 Reference Energy          =    -551.2145554183302920 [Eh]
	 Singles Energy            =      -0.0000000000000004 [Eh]
	 Same-Spin Energy          =      -0.6065690226692794 [Eh]
	 Opposite-Spin Energy      =      -1.8399082372314066 [Eh]
	 Correlation Energy        =      -2.4464772599006865 [Eh]
	 Total Energy              =    -553.6610326782309812 [Eh]
	 SCS Total Energy          =    -553.6246349772310396 [Eh]
  @DF-RHF Final Energy:  -551.22586946827221
    Total Energy =                       -551.2258694682722080
  @DF-RHF Final Energy:  -551.23466104958106
    Total Energy =                       -551.2346610495810637
  @DF-RHF Final Energy:  -551.24038892628948
    Total Energy =                       -551.2403889262894836
  @DF-RHF Final Energy:  -551.24304825579736
    Total Energy =                       -551.2430482557973619
  @DF-RHF Final Energy:  -551.24414184344187
    Total Energy =                       -551.2441418434418665
  @DF-RHF Final Energy:  -551.24476173277685
    Total Energy =                       -551.2447617327768512
  @DF-RHF Final Energy:  -551.24510928422399
    Total Energy =                       -551.2451092842239859
  @DF-RHF Final Energy:  -551.24509291622405
    Total Energy =                       -551.2450929162240527
  @DF-RHF Final Energy:  -551.24507406100474
    Total Energy =                       -551.2450740610047433
  @DF-RHF Final Energy:  -551.24504583396492
    Total Energy =                       -551.2450458339649231
  @DF-RHF Final Energy:  -551.24498917079063
    Total Energy =                       -551.2449891707906318
  Charge       = 0
  Multiplicity = 1
  Basis Set: AUG-CC-PVTZ
    Blend: AUG-CC-PVTZ
  Basis Set: (AUG-CC-PVTZ AUX)
    Blend: AUG-CC-PVTZ-JKFIT

    Orbital Energies (a.u.)
    -----------------------

    Doubly Occupied:

       1A    -20.477248     2A    -15.663456     3A    -11.332018
       4A    -11.331155     5A    -11.295215     6A    -11.278981
       7A    -11.264113     8A    -11.263359     9A    -11.236851
      10A    -11.235869    11A    -11.222619    12A    -11.202495
      13A    -11.201165    14A     -1.346408    15A     -1.311608
      16A     -1.167155    17A     -1.106723    18A     -1.090683
      19A     -1.011401    20A     -0.996261    21A     -0.907810
      22A     -0.894940    23A     -0.813766    24A     -0.813461
      25A     -0.794642    26A     -0.718048    27A     -0.710591
      28A     -0.681147    29A     -0.657148    30A     -0.628453
      31A     -0.623730    32A     -0.618230    33A     -0.612136
      34A     -0.582810    35A     -0.556239    36A     -0.549471
      37A     -0.524439    38A     -0.520339    39A     -0.485854
      40A     -0.473955    41A     -0.409786    42A     -0.397063
      43A     -0.370862    44A     -0.344537    45A     -0.246985

  @DF-RHF Final Energy:  -551.24499232530923

   => Energetics <=

    Nuclear Repulsion Energy =            698.3660974370345684
    One-Electron Energy =               -2133.2797229967709427
    Two-Electron Energy =                 883.6686332344271477
    DFT Exchange-Correlation Energy =       0.0000000000000000
    Empirical Dispersion Energy =           0.0000000000000000
    PCM Polarization Energy =               0.0000000000000000
    EFP Energy =                            0.0000000000000000
    Total Energy =                       -551.2449923253092265
  Basis Set: (AUG-CC-PVTZ AUX)
    Blend: AUG-CC-PVTZ-RI
    Molecular point group: c1
  Basis Set: AUG-CC-PVTZ
    Blend: AUG-CC-PVTZ
  Basis Set: (AUG-CC-PVTZ AUX)
    Blend: AUG-CC-PVTZ-JKFIT
  Basis Set: (AUG-CC-PVTZ AUX)
    Blend: AUG-CC-PVTZ-JKFIT
	 Reference Energy          =    -551.2449923253092265 [Eh]
	 Singles Energy            =      -0.0000000000000003 [Eh]
	 Same-Spin Energy          =      -0.5995474712639052 [Eh]
	 Opposite-Spin Energy      =      -1.8350740468745605 [Eh]
	 Correlation Energy        =      -2.4346215181384663 [Eh]
	 Total Energy              =    -553.6796138434476688 [Eh]

	 ================> DF-SCS-MP2 Energies <==================
	-----------------------------------------------------------
	 SCS Same-Spin Scale       =       0.3333333333333333 [-]
	 SCS Opposite-Spin Scale   =       1.2000000000000000 [-]
	 SCS Same-Spin Energy      =      -0.1998491570879684 [Eh]
	 SCS Opposite-Spin Energy  =      -2.2020888562494725 [Eh]
	 SCS Correlation Energy    =      -2.4019380133374413 [Eh]
	 SCS Total Energy          =    -553.6469303386467118 [Eh]
	-----------------------------------------------------------

  -Total Gradient:
     Atom            X                  Y                   Z
    ------   -----------------  -----------------  -----------------
       1        0.002979532936     0.005999561705     0.000377915171
       2        0.000118524294     0.000223548050    -0.000062486874
       3       -0.000040828994     0.000021645461     0.000071006189
       4       -0.000061015143     0.000036983555     0.000005741515
       5       -0.001198144513    -0.006139696296     0.002576648950
       6       -0.000091180284    -0.000137556572     0.000058113952
       7        0.000020315653    -0.000009198556     0.000007992950
       8        0.000000484201    -0.000032133039    -0.000015395877
       9       -0.005225256370    -0.013014348844     0.000852138039
      10        0.003422599070     0.013068390713    -0.003779803731
      11        0.000106398998    -0.000026424123    -0.000056146922
      12        0.000006813084     0.000034375250    -0.000002904870
      13       -0.000044276560    -0.000000370934     0.000021489422
      14       -0.000008991436     0.000003897036    -0.000012190449
      15       -0.000028095686    -0.000029232559     0.000018551886
      16        0.000019947556     0.000009392832    -0.000015826269
      17        0.000011261900    -0.000017287749    -0.000015190864
      18       -0.000006725276    -0.000000606205    -0.000013841736
      19        0.000023864215     0.000023085596    -0.000019930290
      20       -0.000005751461    -0.000012825782     0.000009448958
      21       -0.000007262785    -0.000002727191    -0.000001389624
      22        0.000007786591     0.000001527648    -0.000003939525

  **** Optimization is complete! (in 13 steps) ****
    Final optimized geometry and variables:
    Molecular point group: c1

    Geometry (in Angstrom), charge = 0, multiplicity = 1:

    C           -1.377969769685     0.646805741678    -0.546760433251
    C           -0.286693183130     0.185727874234     1.572863659333
    C           -2.406689353336     1.249536608398     0.102503805354
    C           -1.326040208540     0.750551443554     2.239476601123
    C            0.733941713881    -0.953542279568    -1.858419821672
    C            2.115071140228    -0.573482272874     0.067088458071
    C            1.801313554690    -1.500845004462    -2.492518989097
    C            3.161728177697    -1.119713850200    -0.602228338022
    C           -0.279897802924     0.069508704806     0.153802507185
    C            0.829011704966    -0.425165760013    -0.535289661451
    C           -2.464559997875     1.325944473987     1.549039461604
    N            3.011969853693    -1.575697059486    -1.874917668913
    O           -3.412451028348     1.850690464323     2.152393320607
    H           -1.371651781340     0.646569241230    -1.628010037291
    H            0.523233825892    -0.246619174932     2.143201647312
    H           -3.213295911598     1.714109478530    -0.445005005981
    H           -1.341157606954     0.784969400806     3.318847556405
    H           -0.210239118860    -0.953266770318    -2.377586553381
    H            2.296744190359    -0.206726936193     1.063311463270
    H            1.740895652240    -1.919584186198    -3.483421750745
    H            4.146114222809    -1.209279538646    -0.173252719571
    H            3.793987455097    -1.984707249412    -2.354703937734

*** Psi4 exiting successfully. Buy a developer a beer!
