                               Psi4 1.1 release

  ==> Input File <==

--------------------------------------------------------------------------

memory 5 Gb

molecule phepyrOH_cation {
  symmetry C1
  1 1
  C      1.885   -1.036   -0.112
  C      2.878   -1.652   2.002
  C      0.807   -0.463   0.561
  C      1.800   -1.079   2.676
  C      4.517   -3.474   0.295
  C      4.640   -1.549   -1.148
  C      5.592   -4.020   -0.392
  C      5.712   -2.143   -1.799
  C      2.921   -1.631   0.608
  C      4.040   -2.225   -0.090
  C      0.764   -0.484   1.955
  N      6.152   -3.347   -1.407
  O      -0.288   0.076   2.612
  H      1.904   -1.012   -1.199
  H      3.678   -2.112   2.578
  H      0.003   -0.001   -0.006
  H      1.772   -1.098   3.762
  H      4.068   -4.025   1.116
  H      4.289   -0.573   -1.469
  H      6.028   -4.983   -0.163
  H      6.238   -1.693   -2.629
  H      6.941   -3.766   -1.898
  H      -0.175   -0.018   3.571
  units Angstrom
}

dih_string = "1 9 10 5 225"
set optking fixed_dihedral = $dih_string

optimize('MP2/aug-cc-PVTZ')
--------------------------------------------------------------------------

    Molecular point group: c1
  Charge       = 1
  Multiplicity = 1
  Basis Set: AUG-CC-PVTZ
    Blend: AUG-CC-PVTZ
  Basis Set: (AUG-CC-PVTZ AUX)
    Blend: AUG-CC-PVTZ-JKFIT
  @DF-RHF Final Energy:  -551.67575729839996
    Total Energy =                       -551.6757572983999580
  Basis Set: (AUG-CC-PVTZ AUX)
    Blend: AUG-CC-PVTZ-RI
    Molecular point group: c1
  Basis Set: AUG-CC-PVTZ
    Blend: AUG-CC-PVTZ
  Basis Set: (AUG-CC-PVTZ AUX)
    Blend: AUG-CC-PVTZ-JKFIT
  Basis Set: (AUG-CC-PVTZ AUX)
    Blend: AUG-CC-PVTZ-JKFIT
	 Reference Energy          =    -551.6757572983999580 [Eh]
	 Singles Energy            =      -0.0000000000000003 [Eh]
	 Same-Spin Energy          =      -0.5963916265366230 [Eh]
	 Opposite-Spin Energy      =      -1.8251248004706035 [Eh]
	 Correlation Energy        =      -2.4215164270072269 [Eh]
	 Total Energy              =    -554.0972737254071490 [Eh]
	 SCS Total Energy          =    -554.0647042678102707 [Eh]
  @DF-RHF Final Energy:  -551.68047511216287
    Total Energy =                       -551.6804751121628669
  @DF-RHF Final Energy:  -551.68150037463909
    Total Energy =                       -551.6815003746390857
  @DF-RHF Final Energy:  -551.68156507644096
    Total Energy =                       -551.6815650764409611
  @DF-RHF Final Energy:  -551.68157104715090
    Total Energy =                       -551.6815710471508964
  @DF-RHF Final Energy:  -551.68159122448890
    Total Energy =                       -551.6815912244888978
  Charge       = 1
  Multiplicity = 1
  Basis Set: AUG-CC-PVTZ
    Blend: AUG-CC-PVTZ
  Basis Set: (AUG-CC-PVTZ AUX)
    Blend: AUG-CC-PVTZ-JKFIT

    Orbital Energies (a.u.)
    -----------------------

    Doubly Occupied:

       1A    -20.705253     2A    -15.830821     3A    -11.481293
       4A    -11.481124     5A    -11.448799     6A    -11.431440
       7A    -11.411075     8A    -11.410564     9A    -11.377067
      10A    -11.374381    11A    -11.370423    12A    -11.353912
      13A    -11.347183    14A     -1.528220    15A     -1.508819
      16A     -1.318457    17A     -1.265828    18A     -1.239169
      19A     -1.156030    20A     -1.153745    21A     -1.063507
      22A     -1.057419    23A     -0.978368    24A     -0.962831
      25A     -0.951969    26A     -0.872011    27A     -0.861250
      28A     -0.855421    29A     -0.819625    30A     -0.801034
      31A     -0.786660    32A     -0.772167    33A     -0.755861
      34A     -0.730453    35A     -0.722171    36A     -0.709607
      37A     -0.704144    38A     -0.687556    39A     -0.659046
      40A     -0.631248    41A     -0.617671    42A     -0.570107
      43A     -0.539728    44A     -0.472147    45A     -0.435860

  @DF-RHF Final Energy:  -551.68158885318599

   => Energetics <=

    Nuclear Repulsion Energy =            713.7662162722851917
    One-Electron Energy =               -2150.4726858973854178
    Two-Electron Energy =                 885.0248807719142405
    DFT Exchange-Correlation Energy =       0.0000000000000000
    Empirical Dispersion Energy =           0.0000000000000000
    PCM Polarization Energy =               0.0000000000000000
    EFP Energy =                            0.0000000000000000
    Total Energy =                       -551.6815888531859855
  Basis Set: (AUG-CC-PVTZ AUX)
    Blend: AUG-CC-PVTZ-RI
    Molecular point group: c1
  Basis Set: AUG-CC-PVTZ
    Blend: AUG-CC-PVTZ
  Basis Set: (AUG-CC-PVTZ AUX)
    Blend: AUG-CC-PVTZ-JKFIT
  Basis Set: (AUG-CC-PVTZ AUX)
    Blend: AUG-CC-PVTZ-JKFIT
	 Reference Energy          =    -551.6815888531859855 [Eh]
	 Singles Energy            =      -0.0000000000000001 [Eh]
	 Same-Spin Energy          =      -0.5958309968803694 [Eh]
	 Opposite-Spin Energy      =      -1.8233961277132709 [Eh]
	 Correlation Energy        =      -2.4192271245936405 [Eh]
	 Total Energy              =    -554.1008159777795754 [Eh]

	 ================> DF-SCS-MP2 Energies <==================
	-----------------------------------------------------------
	 SCS Same-Spin Scale       =       0.3333333333333333 [-]
	 SCS Opposite-Spin Scale   =       1.2000000000000000 [-]
	 SCS Same-Spin Energy      =      -0.1986103322934565 [Eh]
	 SCS Opposite-Spin Energy  =      -2.1880753532559249 [Eh]
	 SCS Correlation Energy    =      -2.3866856855493817 [Eh]
	 SCS Total Energy          =    -554.0682745387354089 [Eh]
	-----------------------------------------------------------

  -Total Gradient:
     Atom            X                  Y                   Z
    ------   -----------------  -----------------  -----------------
       1       -0.001973486553    -0.003462101207    -0.000096720270
       2        0.000039146383     0.000037610104     0.000034902718
       3       -0.000000473743     0.000016050898    -0.000028844829
       4       -0.000029631192    -0.000026916384     0.000003069836
       5       -0.002550540908    -0.001772098671    -0.002530367343
       6        0.000013659584     0.000016808899    -0.000028630388
       7       -0.000018312937    -0.000029187311    -0.000008589989
       8        0.000016576901     0.000007366468     0.000002881270
       9        0.001605434052     0.004262360748    -0.001179973277
      10        0.002881193878     0.000950793375     0.003801133908
      11        0.000032764804     0.000023306402     0.000029636513
      12        0.000004481501     0.000011162485    -0.000000237036
      13       -0.000010376309    -0.000004204500    -0.000008655707
      14        0.000006215614    -0.000010091285     0.000009161109
      15       -0.000009251320    -0.000015080497    -0.000016673461
      16       -0.000002882613    -0.000006606108     0.000009906734
      17       -0.000001738118     0.000000557884    -0.000001747164
      18        0.000001817460     0.000012322851    -0.000001056806
      19       -0.000004400471    -0.000013961555     0.000009785895
      20        0.000003689227     0.000004565545     0.000001360651
      21       -0.000001023015    -0.000001224766    -0.000003991701
      22        0.000001043884     0.000002350504     0.000001912370
      23       -0.000003906115    -0.000003783869     0.000001736983

  **** Optimization is complete! (in 7 steps) ****
    Final optimized geometry and variables:
    Molecular point group: c1

    Geometry (in Angstrom), charge = 1, multiplicity = 1:

    C           -1.228920033828     0.791684356782    -0.543326194230
    C           -0.295640817542     0.094467641731     1.564873334471
    C           -2.324706673182     1.312098174928     0.110879350960
    C           -1.379752874181     0.637979692857     2.225229310951
    C            1.412177960203    -1.678243921269    -0.146591809413
    C            1.490513023915     0.184610936068    -1.643839228830
    C            2.440662292276    -2.260745821470    -0.844450162738
    C            2.515124883643    -0.425511652349    -2.323292733775
    C           -0.194212631309     0.184712786374     0.175268698441
    C            0.916147230794    -0.424022769609    -0.521435189167
    C           -2.401750892608     1.246925719713     1.500300115785
    N            2.960790295588    -1.622075958700    -1.905741236093
    O           -3.492582349558     1.787460130194     2.071022268283
    H           -1.192546789708     0.826824478530    -1.622395863676
    H            0.497953998340    -0.361673494682     2.138806959492
    H           -3.137841285062     1.765235177057    -0.433895036078
    H           -1.434462770278     0.591344768431     3.303161628980
    H            0.979464352739    -2.211074300874     0.684578078339
    H            1.151899788648     1.153836742948    -1.972787209964
    H            2.856466031965    -3.224979228749    -0.604019393572
    H            3.002994496310     0.003534131237    -3.182617910881
    H            3.716461716651    -2.062635124569    -2.414445038825
    H           -3.456048858093     1.690217521964     3.029047598176

*** Psi4 exiting successfully. Buy a developer a beer!
