                               Psi4 1.1 release

  ==> Input File <==

--------------------------------------------------------------------------

memory 5 Gb

molecule phepyrFOH_cation {
  symmetry C1
  1 1
  C      1.885   -1.036   -0.112
  C      0.807   -0.463   0.561
  C      4.435   -1.716   -1.328
  C      4.716   -3.305   0.461
  C      1.800   -1.079   2.676
  C      5.508   -2.306   -1.979
  C      5.783   -3.855   -0.236
  C      2.921   -1.631   0.608
  C      4.038   -2.225   -0.095
  C      0.764   -0.484   1.955
  C      2.878   -1.652   2.002
  N      6.144   -3.345   -1.422
  O      -0.289   0.076   2.612
  F      3.866   -2.220   2.709
  H      1.904   -1.012   -1.199
  H      0.002   -0.002   -0.006
  H      3.924   -0.874   -1.785
  H      4.428   -3.723   1.421
  H      1.772   -1.099   3.762
  H      5.886   -1.977   -2.938
  H      6.366   -4.693   0.118
  H      6.930   -3.765   -1.918
  H      -0.175   -0.018   3.571
  units Angstrom
}

dih_string = "1 8 9 3 30"
set optking fixed_dihedral = $dih_string

optimize('MP2/aug-cc-PVTZ')
--------------------------------------------------------------------------

    Molecular point group: c1
  Charge       = 1
  Multiplicity = 1
  Basis Set: AUG-CC-PVTZ
    Blend: AUG-CC-PVTZ
  Basis Set: (AUG-CC-PVTZ AUX)
    Blend: AUG-CC-PVTZ-JKFIT
  @DF-RHF Final Energy:  -650.55998214329043
    Total Energy =                       -650.5599821432904264
  Basis Set: (AUG-CC-PVTZ AUX)
    Blend: AUG-CC-PVTZ-RI
    Molecular point group: c1
  Basis Set: AUG-CC-PVTZ
    Blend: AUG-CC-PVTZ
  Basis Set: (AUG-CC-PVTZ AUX)
    Blend: AUG-CC-PVTZ-JKFIT
  Basis Set: (AUG-CC-PVTZ AUX)
    Blend: AUG-CC-PVTZ-JKFIT
	 Reference Energy          =    -650.5599821432904264 [Eh]
	 Singles Energy            =      -0.0000000000000001 [Eh]
	 Same-Spin Energy          =      -0.6701448342743519 [Eh]
	 Opposite-Spin Energy      =      -2.0153122136277042 [Eh]
	 Correlation Energy        =      -2.6854570479020561 [Eh]
	 Total Energy              =    -653.2454391911925313 [Eh]
	 SCS Total Energy          =    -653.2017384110685043 [Eh]
  @DF-RHF Final Energy:  -650.56666577323790
    Total Energy =                       -650.5666657732379008
  @DF-RHF Final Energy:  -650.56932077914394
    Total Energy =                       -650.5693207791439363
  @DF-RHF Final Energy:  -650.56988688952367
    Total Energy =                       -650.5698868895235591
  @DF-RHF Final Energy:  -650.56999947612394
    Total Energy =                       -650.5699994761239395
  @DF-RHF Final Energy:  -650.57005597845841
    Total Energy =                       -650.5700559784584129
  Charge       = 1
  Multiplicity = 1
  Basis Set: AUG-CC-PVTZ
    Blend: AUG-CC-PVTZ
  Basis Set: (AUG-CC-PVTZ AUX)
    Blend: AUG-CC-PVTZ-JKFIT

    Orbital Energies (a.u.)
    -----------------------

    Doubly Occupied:

       1A    -26.446948     2A    -20.718065     3A    -15.829305
       4A    -11.480111     5A    -11.478340     6A    -11.475408
       7A    -11.453849     8A    -11.448970     9A    -11.411564
      10A    -11.408311    11A    -11.387746    12A    -11.381680
      13A    -11.362729    14A    -11.353468    15A     -1.767015
      16A     -1.541777    17A     -1.507590    18A     -1.323649
      19A     -1.275838    20A     -1.237722    21A     -1.170736
      22A     -1.161539    23A     -1.065645    24A     -1.062902
      25A     -0.998455    26A     -0.973637    27A     -0.959761
      28A     -0.902004    29A     -0.872612    30A     -0.864350
      31A     -0.855780    32A     -0.833992    33A     -0.819365
      34A     -0.807048    35A     -0.790743    36A     -0.772832
      37A     -0.767977    38A     -0.753161    39A     -0.730572
      40A     -0.720715    41A     -0.708620    42A     -0.691728
      43A     -0.667353    44A     -0.647658    45A     -0.638093
      46A     -0.574258    47A     -0.537962    48A     -0.480223
      49A     -0.446162

  @DF-RHF Final Energy:  -650.57009361975008

   => Energetics <=

    Nuclear Repulsion Energy =            831.2609694375150866
    One-Electron Energy =               -2522.5301933603600446
    Two-Electron Energy =                1040.6991303030947620
    DFT Exchange-Correlation Energy =       0.0000000000000000
    Empirical Dispersion Energy =           0.0000000000000000
    PCM Polarization Energy =               0.0000000000000000
    EFP Energy =                            0.0000000000000000
    Total Energy =                       -650.5700936197501960
  Basis Set: (AUG-CC-PVTZ AUX)
    Blend: AUG-CC-PVTZ-RI
    Molecular point group: c1
  Basis Set: AUG-CC-PVTZ
    Blend: AUG-CC-PVTZ
  Basis Set: (AUG-CC-PVTZ AUX)
    Blend: AUG-CC-PVTZ-JKFIT
  Basis Set: (AUG-CC-PVTZ AUX)
    Blend: AUG-CC-PVTZ-JKFIT
	 Reference Energy          =    -650.5700936197500823 [Eh]
	 Singles Energy            =      -0.0000000000000004 [Eh]
	 Same-Spin Energy          =      -0.6687571478883563 [Eh]
	 Opposite-Spin Energy      =      -2.0123478171148648 [Eh]
	 Correlation Energy        =      -2.6811049650032213 [Eh]
	 Total Energy              =    -653.2511985847532969 [Eh]

	 ================> DF-SCS-MP2 Energies <==================
	-----------------------------------------------------------
	 SCS Same-Spin Scale       =       0.3333333333333333 [-]
	 SCS Opposite-Spin Scale   =       1.2000000000000000 [-]
	 SCS Same-Spin Energy      =      -0.2229190492961187 [Eh]
	 SCS Opposite-Spin Energy  =      -2.4148173805378375 [Eh]
	 SCS Correlation Energy    =      -2.6377364298339567 [Eh]
	 SCS Total Energy          =    -653.2078300495840040 [Eh]
	-----------------------------------------------------------

  -Total Gradient:
     Atom            X                  Y                   Z
    ------   -----------------  -----------------  -----------------
       1       -0.000093349045    -0.000112417181    -0.000020173772
       2        0.000039526328    -0.000016062354    -0.000012253848
       3        0.000097452782     0.000120040503     0.000049227240
       4       -0.000021640909     0.000030021325     0.000006599857
       5       -0.000027981836    -0.000008934273     0.000036054830
       6       -0.000006627731    -0.000015462191     0.000004688483
       7        0.000011150493     0.000011810741    -0.000034422578
       8        0.000139922748     0.000210036925     0.000034777713
       9       -0.000159907252    -0.000249960835    -0.000062265407
      10       -0.000007658980    -0.000026583158    -0.000020420392
      11        0.000013406452     0.000157518982    -0.000083795156
      12        0.000002922426    -0.000006988038     0.000007690702
      13       -0.000010005803     0.000015011876     0.000009820733
      14        0.000030289510    -0.000083192000     0.000040476876
      15        0.000005732445    -0.000008189782     0.000009707351
      16       -0.000019798184     0.000006861270     0.000017235955
      17        0.000004083344    -0.000009253917     0.000005795776
      18        0.000002438735    -0.000006392020    -0.000002524752
      19        0.000005633445    -0.000007217108     0.000003142945
      20       -0.000002038648    -0.000001096336    -0.000000521135
      21       -0.000005690637    -0.000001781896     0.000003602757
      22        0.000006802744     0.000003445423     0.000003955924
      23       -0.000004662436    -0.000001215935     0.000003599901

  **** Optimization is complete! (in 7 steps) ****
    Final optimized geometry and variables:
    Molecular point group: c1

    Geometry (in Angstrom), charge = 1, multiplicity = 1:

    C           -1.337057069547     0.757634047786    -0.748372331680
    C           -2.410756235046     1.324072703927    -0.103799709214
    C            1.238371869140     0.065057156624    -1.985689999805
    C            1.540741081835    -1.541278583563    -0.242628428892
    C           -1.435068298352     0.737225802441     2.019636540586
    C            2.283861224344    -0.500995691874    -2.669854026474
    C            2.581273026652    -2.084699209073    -0.953845431679
    C           -0.285527384033     0.151936039424    -0.044546016404
    C            0.829897431440    -0.441749450185    -0.744266336728
    C           -2.463620330792     1.321264770910     1.289824863997
    C           -0.383600732200     0.163436809435     1.345832061680
    N            2.924624148926    -1.555016628116    -2.138901711472
    O           -3.533966665845     1.896345749609     1.857639342109
    F            0.611012099243    -0.365645981020     2.079115719394
    H           -1.330909674993     0.740054351763    -1.827478923540
    H           -3.223969318671     1.766191868438    -0.656131264012
    H            0.757821985590     0.929941851786    -2.412141175546
    H            1.272385257894    -1.992722391353     0.695978650138
    H           -1.433414557338     0.727630260310     3.098642149758
    H            2.640200039347    -0.139762580596    -3.620006253181
    H            3.149402850518    -2.935529493844    -0.616800163528
    H            3.697125174436    -1.963187203451    -2.649308740709
    H           -3.483309092945     1.842365734986     2.818732772891

*** Psi4 exiting successfully. Buy a developer a beer!
