                               Psi4 1.1 release

  ==> Input File <==

--------------------------------------------------------------------------

memory 5 Gb

molecule phepyrFOH_cation {
  symmetry C1
  1 1
  C      1.885   -1.036   -0.112
  C      0.807   -0.463   0.561
  C      3.943   -2.485   -1.458
  C      5.207   -2.536   0.592
  C      1.800   -1.079   2.676
  C      5.030   -3.056   -2.106
  C      6.262   -3.106   -0.108
  C      2.921   -1.631   0.608
  C      4.038   -2.225   -0.095
  C      0.764   -0.484   1.955
  C      2.878   -1.652   2.002
  N      6.144   -3.346   -1.421
  O      -0.289   0.076   2.612
  F      3.866   -2.220   2.709
  H      1.904   -1.012   -1.199
  H      0.002   -0.002   -0.006
  H      3.043   -2.252   -2.019
  H      5.309   -2.344   1.656
  H      1.772   -1.099   3.762
  H      5.046   -3.292   -3.161
  H      7.206   -3.379   0.342
  H      6.930   -3.766   -1.916
  H      -0.175   -0.018   3.571
  units Angstrom
}

dih_string = "1 8 9 3 345"
set optking fixed_dihedral = $dih_string

optimize('MP2/aug-cc-PVTZ')
--------------------------------------------------------------------------

    Molecular point group: c1
  Charge       = 1
  Multiplicity = 1
  Basis Set: AUG-CC-PVTZ
    Blend: AUG-CC-PVTZ
  Basis Set: (AUG-CC-PVTZ AUX)
    Blend: AUG-CC-PVTZ-JKFIT
  @DF-RHF Final Energy:  -650.55313549179346
    Total Energy =                       -650.5531354917934550
  Basis Set: (AUG-CC-PVTZ AUX)
    Blend: AUG-CC-PVTZ-RI
    Molecular point group: c1
  Basis Set: AUG-CC-PVTZ
    Blend: AUG-CC-PVTZ
  Basis Set: (AUG-CC-PVTZ AUX)
    Blend: AUG-CC-PVTZ-JKFIT
  Basis Set: (AUG-CC-PVTZ AUX)
    Blend: AUG-CC-PVTZ-JKFIT
	 Reference Energy          =    -650.5531354917934550 [Eh]
	 Singles Energy            =      -0.0000000000000001 [Eh]
	 Same-Spin Energy          =      -0.6709242889857219 [Eh]
	 Opposite-Spin Energy      =      -2.0164536309443504 [Eh]
	 Correlation Energy        =      -2.6873779199300722 [Eh]
	 Total Energy              =    -653.2405134117235548 [Eh]
	 SCS Total Energy          =    -653.1965212785885342 [Eh]
  @DF-RHF Final Energy:  -650.56148533359351
    Total Energy =                       -650.5614853335935095
  @DF-RHF Final Energy:  -650.56590321326121
    Total Energy =                       -650.5659032132612083
  @DF-RHF Final Energy:  -650.56780721687096
    Total Energy =                       -650.5678072168709605
  @DF-RHF Final Energy:  -650.56861629037076
    Total Energy =                       -650.5686162903707555
  @DF-RHF Final Energy:  -650.56898846724437
    Total Energy =                       -650.5689884672442531
  @DF-RHF Final Energy:  -650.56911957377611
    Total Energy =                       -650.5691195737761063
  Charge       = 1
  Multiplicity = 1
  Basis Set: AUG-CC-PVTZ
    Blend: AUG-CC-PVTZ
  Basis Set: (AUG-CC-PVTZ AUX)
    Blend: AUG-CC-PVTZ-JKFIT

    Orbital Energies (a.u.)
    -----------------------

    Doubly Occupied:

       1A    -26.449425     2A    -20.721177     3A    -15.826034
       4A    -11.478949     5A    -11.477583     6A    -11.476090
       7A    -11.455038     8A    -11.452030     9A    -11.409717
      10A    -11.404807    11A    -11.389491    12A    -11.384778
      13A    -11.363693    14A    -11.354938    15A     -1.770122
      16A     -1.545085    17A     -1.505308    18A     -1.323080
      19A     -1.276089    20A     -1.235254    21A     -1.171823
      22A     -1.163301    23A     -1.065794    24A     -1.061526
      25A     -0.999395    26A     -0.976172    27A     -0.958535
      28A     -0.904812    29A     -0.873931    30A     -0.866332
      31A     -0.853424    32A     -0.835643    33A     -0.821846
      34A     -0.806014    35A     -0.786571    36A     -0.771909
      37A     -0.770450    38A     -0.755051    39A     -0.728233
      40A     -0.723159    41A     -0.709357    42A     -0.691462
      43A     -0.667582    44A     -0.647656    45A     -0.643594
      46A     -0.574095    47A     -0.536454    48A     -0.481525
      49A     -0.446792

  @DF-RHF Final Energy:  -650.56915296179454

   => Energetics <=

    Nuclear Repulsion Energy =            830.4030718506695621
    One-Electron Energy =               -2520.7622026801800530
    Two-Electron Energy =                1039.7899778677158338
    DFT Exchange-Correlation Energy =       0.0000000000000000
    Empirical Dispersion Energy =           0.0000000000000000
    PCM Polarization Energy =               0.0000000000000000
    EFP Energy =                            0.0000000000000000
    Total Energy =                       -650.5691529617945434
  Basis Set: (AUG-CC-PVTZ AUX)
    Blend: AUG-CC-PVTZ-RI
    Molecular point group: c1
  Basis Set: AUG-CC-PVTZ
    Blend: AUG-CC-PVTZ
  Basis Set: (AUG-CC-PVTZ AUX)
    Blend: AUG-CC-PVTZ-JKFIT
  Basis Set: (AUG-CC-PVTZ AUX)
    Blend: AUG-CC-PVTZ-JKFIT
	 Reference Energy          =    -650.5691529617945434 [Eh]
	 Singles Energy            =      -0.0000000000000003 [Eh]
	 Same-Spin Energy          =      -0.6687539186811303 [Eh]
	 Opposite-Spin Energy      =      -2.0125640300505396 [Eh]
	 Correlation Energy        =      -2.6813179487316705 [Eh]
	 Total Energy              =    -653.2504709105262464 [Eh]

	 ================> DF-SCS-MP2 Energies <==================
	-----------------------------------------------------------
	 SCS Same-Spin Scale       =       0.3333333333333333 [-]
	 SCS Opposite-Spin Scale   =       1.2000000000000000 [-]
	 SCS Same-Spin Energy      =      -0.2229179728937101 [Eh]
	 SCS Opposite-Spin Energy  =      -2.4150768360606474 [Eh]
	 SCS Correlation Energy    =      -2.6379948089543581 [Eh]
	 SCS Total Energy          =    -653.2071477707488611 [Eh]
	-----------------------------------------------------------

  -Total Gradient:
     Atom            X                  Y                   Z
    ------   -----------------  -----------------  -----------------
       1       -0.001027018988    -0.001896162605    -0.000067242309
       2        0.000055455358    -0.000023429948    -0.000006363549
       3        0.000788344740     0.001948284926    -0.000425158148
       4       -0.000095691935     0.000008406190    -0.000001039292
       5       -0.000062784435     0.000020836513     0.000032148470
       6       -0.000025623701     0.000021850738    -0.000001572514
       7        0.000010134862    -0.000024819809    -0.000087863910
       8        0.001989322389     0.003744824983    -0.000128394350
       9       -0.001712486960    -0.003818844695     0.000717484887
      10        0.000005553850     0.000001762445     0.000005175447
      11       -0.000017487135     0.000053016226    -0.000135483578
      12        0.000040317483     0.000001049002     0.000062671343
      13       -0.000011255250     0.000008099094    -0.000007951627
      14        0.000070955399    -0.000056531537     0.000054469046
      15       -0.000009494867    -0.000003912700    -0.000027260025
      16       -0.000022025553     0.000009300314     0.000004902195
      17       -0.000016088416     0.000010319859    -0.000031536308
      18        0.000019747098     0.000015613811     0.000014537948
      19        0.000021263630    -0.000014374567     0.000008346228
      20       -0.000003155251     0.000002034524    -0.000005104159
      21       -0.000001277098     0.000009842836     0.000020384017
      22        0.000002639647    -0.000014788321    -0.000006905311
      23        0.000000655116    -0.000002377278     0.000011755501

  **** Optimization is complete! (in 8 steps) ****
    Final optimized geometry and variables:
    Molecular point group: c1

    Geometry (in Angstrom), charge = 1, multiplicity = 1:

    C           -1.287121856973     0.779840062168    -0.791920454449
    C           -2.383262569941     1.358404869912    -0.201056092104
    C            0.817878092497    -0.749873908247    -2.075373885424
    C            2.074788572734    -0.742737950255    -0.049704681943
    C           -1.529277694302     0.741038398412     1.959728942074
    C            1.888446764942    -1.309910992792    -2.722483972833
    C            3.129239228607    -1.299830619786    -0.728678750558
    C           -0.259910677096     0.174883171122    -0.047063861870
    C            0.866934052119    -0.448526366410    -0.704454412777
    C           -2.513897408739     1.342362563906     1.187356300379
    C           -0.439154212558     0.179644132781     1.338592399325
    N            3.013604577987    -1.571239444584    -2.037561424690
    O           -3.606840544526     1.920793155780     1.702925265058
    F            0.461251672415    -0.424234464521     2.133187866899
    H           -1.205099993574     0.841987784218    -1.864710518741
    H           -3.147947566479     1.834919315244    -0.792708196773
    H           -0.074832730786    -0.581445199285    -2.652207277895
    H            2.211600612808    -0.522922999280     0.992493017728
    H           -1.596032916698     0.691767353417     3.035574055442
    H            1.881825119264    -1.564846235605    -3.769020241621
    H            4.072561624723    -1.531955681579    -0.263121505225
    H            3.798118061761    -1.985840643100    -2.523531452913
    H           -3.606070911458     1.861341602169     2.665220869296

*** Psi4 exiting successfully. Buy a developer a beer!
