                               Psi4 1.1 release

  ==> Input File <==

--------------------------------------------------------------------------

memory 5 Gb

molecule phepyrFOH_neutral {
  symmetry C1
  0 1
  C      1.885   -1.036   -0.112
  C      0.807   -0.463   0.561
  C      3.825   -3.269   -0.988
  C      5.328   -1.753   0.119
  C      1.800   -1.079   2.676
  C      4.927   -3.802   -1.637
  C      6.363   -2.354   -0.579
  C      2.921   -1.631   0.608
  C      4.038   -2.225   -0.095
  C      0.764   -0.484   1.955
  C      2.878   -1.652   2.002
  N      6.195   -3.370   -1.455
  O      -0.289   0.076   2.612
  F      3.866   -2.220   2.709
  H      1.904   -1.012   -1.199
  H      0.002   -0.002   -0.006
  H      2.833   -3.663   -1.183
  H      5.532   -0.940   0.809
  H      1.772   -1.099   3.762
  H      4.814   -4.616   -2.345
  H      7.387   -2.023   -0.446
  H      -1.093   0.016   2.071
  units Angstrom
}

dih_string = "2 10 13 22 30"
set optking fixed_dihedral = $dih_string

optimize('MP2/aug-cc-PVTZ')
--------------------------------------------------------------------------

    Molecular point group: c1
  Charge       = 0
  Multiplicity = 1
  Basis Set: AUG-CC-PVTZ
    Blend: AUG-CC-PVTZ
  Basis Set: (AUG-CC-PVTZ AUX)
    Blend: AUG-CC-PVTZ-JKFIT
  @DF-RHF Final Energy:  -650.17243994502928
    Total Energy =                       -650.1724399450292822
  Basis Set: (AUG-CC-PVTZ AUX)
    Blend: AUG-CC-PVTZ-RI
    Molecular point group: c1
  Basis Set: AUG-CC-PVTZ
    Blend: AUG-CC-PVTZ
  Basis Set: (AUG-CC-PVTZ AUX)
    Blend: AUG-CC-PVTZ-JKFIT
  Basis Set: (AUG-CC-PVTZ AUX)
    Blend: AUG-CC-PVTZ-JKFIT
	 Reference Energy          =    -650.1724399450292822 [Eh]
	 Singles Energy            =      -0.0000000000000001 [Eh]
	 Same-Spin Energy          =      -0.6774322220817288 [Eh]
	 Opposite-Spin Energy      =      -2.0191628951166063 [Eh]
	 Correlation Energy        =      -2.6965951171983349 [Eh]
	 Total Energy              =    -652.8690350622275673 [Eh]
	 SCS Total Energy          =    -652.8212461598631080 [Eh]
    Molecular point group: c1
  Charge       = 0
  Multiplicity = 1
  Basis Set: AUG-CC-PVTZ
    Blend: AUG-CC-PVTZ
  Basis Set: (AUG-CC-PVTZ AUX)
    Blend: AUG-CC-PVTZ-JKFIT

    Orbital Energies (a.u.)
    -----------------------

    Doubly Occupied:

       1A    -26.323082     2A    -20.605650     3A    -15.564145
       4A    -11.344860     5A    -11.323788     6A    -11.273659
       7A    -11.272680     8A    -11.267029     9A    -11.264378
      10A    -11.254155    11A    -11.247577    12A    -11.246845
      13A    -11.239530    14A    -11.237820    15A     -1.643394
      16A     -1.423242    17A     -1.256533    18A     -1.184131
      19A     -1.111623    20A     -1.043094    21A     -1.035004
      22A     -1.022091    23A     -0.890308    24A     -0.877280
      25A     -0.855337    26A     -0.829539    27A     -0.780228
      28A     -0.735962    29A     -0.722571    30A     -0.709587
      31A     -0.694756    32A     -0.666069    33A     -0.664370
      34A     -0.654552    35A     -0.632560    36A     -0.618732
      37A     -0.606729    38A     -0.598314    39A     -0.572332
      40A     -0.549577    41A     -0.539423    42A     -0.525149
      43A     -0.522584    44A     -0.496714    45A     -0.419483
      46A     -0.390177    47A     -0.359935    48A     -0.348778
      49A     -0.328954

  @DF-RHF Final Energy:  -650.17874772506798

   => Energetics <=

    Nuclear Repulsion Energy =            814.4970433184168996
    One-Electron Energy =               -2503.8029664016485185
    Two-Electron Energy =                1039.1271753581636403
    DFT Exchange-Correlation Energy =       0.0000000000000000
    Empirical Dispersion Energy =           0.0000000000000000
    PCM Polarization Energy =               0.0000000000000000
    EFP Energy =                            0.0000000000000000
    Total Energy =                       -650.1787477250679785
  Basis Set: (AUG-CC-PVTZ AUX)
    Blend: AUG-CC-PVTZ-RI
    Molecular point group: c1

    Geometry (in Angstrom), charge = 0, multiplicity = 1:

       Center              X                  Y                   Z               Mass
    ------------   -----------------  -----------------  -----------------  -----------------
           C         -1.332621619633     0.755995346653    -0.783133960612    12.000000000000
           C         -2.406311646287     1.328041372356    -0.112997525547    12.000000000000
           C          0.649522509698    -1.481603172821    -1.676514796262    12.000000000000
           C          2.136518032745     0.019109773337    -0.567093838351    12.000000000000
           C         -1.414977790339     0.721338316382     1.992135932695    12.000000000000
           C          1.754407307698    -2.017153101218    -2.319734968116    12.000000000000
           C          3.175486619468    -0.583076584803    -1.258536951049    12.000000000000
           C         -0.289900515609     0.163514192126    -0.077819616765    12.000000000000
           C          0.842566503777    -0.438733242544    -0.779643313063    12.000000000000
           C         -2.447118245465     1.308385684943     1.277780364993    12.000000000000
           C         -0.350336290321     0.158421733066     1.309612842135    12.000000000000
           N          3.011470792682    -1.590257242689    -2.129506372094    14.003074004780
           O         -3.481863224744     1.864024254266     1.968381438014    15.994914619560
           F          0.639008282143    -0.405924467033     2.012869998776    18.998403224000
           H         -1.309696589248     0.775625259251    -1.864324637631     1.007825032070
           H         -3.209902050940     1.788287855992    -0.673518582364     1.007825032070
           H         -0.338501530424    -1.872136037171    -1.875660443614     1.007825032070
           H          2.336326504990     0.827881391155     0.121462301356     1.007825032070
           H         -1.437929330081     0.701653430110     3.072928114663     1.007825032070
           H          1.642815342254    -2.829386674586    -3.026184806599     1.007825032070
           H          4.196450275304    -0.253301230338    -1.118213040761     1.007825032070
           H         -4.285435363294     1.808578072728     1.439790700272     1.007825032070

  Basis Set: AUG-CC-PVTZ
    Blend: AUG-CC-PVTZ
  Basis Set: (AUG-CC-PVTZ AUX)
    Blend: AUG-CC-PVTZ-JKFIT
  Basis Set: (AUG-CC-PVTZ AUX)
    Blend: AUG-CC-PVTZ-JKFIT
	 Reference Energy          =    -650.1787477250679785 [Eh]
	 Singles Energy            =      -0.0000000000000003 [Eh]
	 Same-Spin Energy          =      -0.6766545501395411 [Eh]
	 Opposite-Spin Energy      =      -2.0170329150541741 [Eh]
	 Correlation Energy        =      -2.6936874651937157 [Eh]
	 Total Energy              =    -652.8724351902617400 [Eh]

	 ================> DF-SCS-MP2 Energies <==================
	-----------------------------------------------------------
	 SCS Same-Spin Scale       =       0.3333333333333333 [-]
	 SCS Opposite-Spin Scale   =       1.2000000000000000 [-]
	 SCS Same-Spin Energy      =      -0.2255515167131804 [Eh]
	 SCS Opposite-Spin Energy  =      -2.4204394980650088 [Eh]
	 SCS Correlation Energy    =      -2.6459910147781898 [Eh]
	 SCS Total Energy          =    -652.8247387398462251 [Eh]
	-----------------------------------------------------------

  -Total Gradient:
     Atom            X                  Y                   Z
    ------   -----------------  -----------------  -----------------
       1        0.006584044763    -0.000265292591    -0.005963596926
       2       -0.001319714316     0.001691033315     0.002193189549
       3       -0.003570095443    -0.000801106864     0.002440855026
       4       -0.002702304237     0.003380438566     0.001587771516
       5       -0.003661626531     0.000296582511    -0.005461553318
       6       -0.006113054830     0.000295543739     0.002258817213
       7       -0.002606301303     0.003794541998     0.003607784746
       8       -0.004870274080     0.002418100592     0.002583544065
       9        0.002324498178    -0.001020177696    -0.002491616479
      10        0.001456658674     0.001998360402     0.008572806720
      11        0.010793573615    -0.010065547046     0.003606398919
      12        0.006480946681    -0.003109126607    -0.004001937163
      13        0.001275741382     0.002140087152    -0.005392390205
      14       -0.001190755952     0.001383814923    -0.000963787153
      15       -0.001829064095     0.000680688292    -0.001746184676
      16       -0.001299408790    -0.000030918338    -0.001491054890
      17       -0.000652606742    -0.000772874697    -0.001432151710
      18        0.001227393234     0.001065343643     0.000692124063
      19        0.000547806896     0.000379427097     0.002267296049
      20        0.001142179270    -0.000482694059    -0.000868241630
      21        0.001117787050    -0.000699614994    -0.000546305554
      22       -0.003135423437    -0.002276609329     0.000548231846

*** Psi4 exiting successfully. Buy a developer a beer!
