                               Psi4 1.1 release

  ==> Input File <==

--------------------------------------------------------------------------

memory 5 Gb

molecule phepyrOH_cation {
  symmetry C1
  1 1
  C      1.885   -1.036   -0.112
  C      2.878   -1.652   2.002
  C      0.807   -0.463   0.561
  C      1.800   -1.079   2.676
  C      4.440   -1.719   -1.322
  C      4.716   -3.305   0.469
  C      5.516   -2.309   -1.970
  C      5.786   -3.855   -0.224
  C      2.921   -1.631   0.608
  C      4.040   -2.225   -0.090
  C      0.764   -0.484   1.955
  N      6.150   -3.348   -1.409
  O      -0.288   0.076   2.612
  H      1.904   -1.012   -1.199
  H      3.678   -2.112   2.578
  H      0.003   -0.001   -0.006
  H      1.772   -1.098   3.762
  H      3.931   -0.877   -1.782
  H      4.425   -3.721   1.429
  H      5.897   -1.982   -2.928
  H      6.368   -4.693   0.134
  H      6.938   -3.767   -1.902
  H      -0.922   0.446   1.977
  units Angstrom
}

dih_string = "3 11 13 23 0.001"
set optking fixed_dihedral = $dih_string

optimize('MP2/aug-cc-PVTZ')
--------------------------------------------------------------------------

    Molecular point group: c1
  Charge       = 1
  Multiplicity = 1
  Basis Set: AUG-CC-PVTZ
    Blend: AUG-CC-PVTZ
  Basis Set: (AUG-CC-PVTZ AUX)
    Blend: AUG-CC-PVTZ-JKFIT
  @DF-RHF Final Energy:  -551.67599667944853
    Total Energy =                       -551.6759966794485308
  Basis Set: (AUG-CC-PVTZ AUX)
    Blend: AUG-CC-PVTZ-RI
    Molecular point group: c1
  Basis Set: AUG-CC-PVTZ
    Blend: AUG-CC-PVTZ
  Basis Set: (AUG-CC-PVTZ AUX)
    Blend: AUG-CC-PVTZ-JKFIT
  Basis Set: (AUG-CC-PVTZ AUX)
    Blend: AUG-CC-PVTZ-JKFIT
	 Reference Energy          =    -551.6759966794485308 [Eh]
	 Singles Energy            =      -0.0000000000000001 [Eh]
	 Same-Spin Energy          =      -0.5966861281539493 [Eh]
	 Opposite-Spin Energy      =      -1.8256553167229628 [Eh]
	 Correlation Energy        =      -2.4223414448769121 [Eh]
	 Total Energy              =    -554.0983381243254371 [Eh]
	 SCS Total Energy          =    -554.0656784355674063 [Eh]
  @DF-RHF Final Energy:  -551.68158960850451
    Total Energy =                       -551.6815896085045097
  @DF-RHF Final Energy:  -551.68301271219048
    Total Energy =                       -551.6830127121904752
  @DF-RHF Final Energy:  -551.68299608838390
    Total Energy =                       -551.6829960883839021
  @DF-RHF Final Energy:  -551.68299629301100
    Total Energy =                       -551.6829962930110014
  @DF-RHF Final Energy:  -551.68301476799400
    Total Energy =                       -551.6830147679939955
  Charge       = 1
  Multiplicity = 1
  Basis Set: AUG-CC-PVTZ
    Blend: AUG-CC-PVTZ
  Basis Set: (AUG-CC-PVTZ AUX)
    Blend: AUG-CC-PVTZ-JKFIT

    Orbital Energies (a.u.)
    -----------------------

    Doubly Occupied:

       1A    -20.710026     2A    -15.825601     3A    -11.478037
       4A    -11.477906     5A    -11.448999     6A    -11.436846
       7A    -11.408045     8A    -11.407725     9A    -11.381093
      10A    -11.377444    11A    -11.372730    12A    -11.356229
      13A    -11.349490    14A     -1.533294    15A     -1.504878
      16A     -1.318227    17A     -1.266633    18A     -1.236103
      19A     -1.157615    20A     -1.157038    21A     -1.061196
      22A     -1.057562    23A     -0.980337    24A     -0.960709
      25A     -0.954493    26A     -0.873899    27A     -0.861680
      28A     -0.855331    29A     -0.819774    30A     -0.799409
      31A     -0.783242    32A     -0.770191    33A     -0.758893
      34A     -0.732075    35A     -0.723148    36A     -0.713667
      37A     -0.702548    38A     -0.687356    39A     -0.663096
      40A     -0.639587    41A     -0.619732    42A     -0.568961
      43A     -0.538030    44A     -0.475017    45A     -0.436461

  @DF-RHF Final Energy:  -551.68302000687402

   => Energetics <=

    Nuclear Repulsion Energy =            713.6042353927617796
    One-Electron Energy =               -2150.0938034258911102
    Two-Electron Energy =                 884.8065480262552001
    DFT Exchange-Correlation Energy =       0.0000000000000000
    Empirical Dispersion Energy =           0.0000000000000000
    PCM Polarization Energy =               0.0000000000000000
    EFP Energy =                            0.0000000000000000
    Total Energy =                       -551.6830200068740169
  Basis Set: (AUG-CC-PVTZ AUX)
    Blend: AUG-CC-PVTZ-RI
    Molecular point group: c1
  Basis Set: AUG-CC-PVTZ
    Blend: AUG-CC-PVTZ
  Basis Set: (AUG-CC-PVTZ AUX)
    Blend: AUG-CC-PVTZ-JKFIT
  Basis Set: (AUG-CC-PVTZ AUX)
    Blend: AUG-CC-PVTZ-JKFIT
	 Reference Energy          =    -551.6830200068740169 [Eh]
	 Singles Energy            =      -0.0000000000000004 [Eh]
	 Same-Spin Energy          =      -0.5957497642020143 [Eh]
	 Opposite-Spin Energy      =      -1.8235110079030097 [Eh]
	 Correlation Energy        =      -2.4192607721050243 [Eh]
	 Total Energy              =    -554.1022807789790932 [Eh]

	 ================> DF-SCS-MP2 Energies <==================
	-----------------------------------------------------------
	 SCS Same-Spin Scale       =       0.3333333333333333 [-]
	 SCS Opposite-Spin Scale   =       1.2000000000000000 [-]
	 SCS Same-Spin Energy      =      -0.1985832547340048 [Eh]
	 SCS Opposite-Spin Energy  =      -2.1882132094836115 [Eh]
	 SCS Correlation Energy    =      -2.3867964642176167 [Eh]
	 SCS Total Energy          =    -554.0698164710915989 [Eh]
	-----------------------------------------------------------

  -Total Gradient:
     Atom            X                  Y                   Z
    ------   -----------------  -----------------  -----------------
       1       -0.000005049100    -0.000012498723     0.000006783298
       2       -0.000017101791     0.000009578799     0.000038867972
       3        0.000005660256     0.000041201835     0.000010762236
       4        0.000032025749    -0.000035885322    -0.000013803362
       5       -0.000012096082     0.000001320697    -0.000002705599
       6        0.000001535007     0.000001841378     0.000019170240
       7        0.000008144918    -0.000002702215     0.000017454664
       8       -0.000009044089     0.000003993867    -0.000013199961
       9        0.000000872813     0.000006120857    -0.000026609457
      10        0.000005914381     0.000002504983    -0.000020122954
      11       -0.000018462380    -0.000042186407    -0.000014880215
      12       -0.000002927079     0.000001112280     0.000000133065
      13        0.000033702502     0.000073026348     0.000008436285
      14        0.000005750883    -0.000000100884    -0.000003755963
      15        0.000006877458    -0.000004229369    -0.000006009796
      16        0.000000051657    -0.000001091747     0.000000336374
      17       -0.000014292302     0.000011021595     0.000004476169
      18        0.000001957028     0.000000194053     0.000002013349
      19       -0.000003703885    -0.000000975358     0.000000417221
      20        0.000000176488    -0.000001930208    -0.000002018265
      21        0.000003127746     0.000000190098    -0.000000549200
      22        0.000002630008    -0.000001395783    -0.000000859424
      23       -0.000025750187    -0.000049110769    -0.000004336664

  **** Optimization is complete! (in 7 steps) ****
    Final optimized geometry and variables:
    Molecular point group: c1

    Geometry (in Angstrom), charge = 1, multiplicity = 1:

    C           -1.272308632216     0.764665262264    -0.548412212051
    C           -0.308132811679     0.080066531091     1.545851293895
    C           -2.340802886563     1.320992209639     0.124039584967
    C           -1.363946297252     0.648527629741     2.222521870528
    C            1.262778395227    -0.012591725914    -1.827086999088
    C            1.614813926246    -1.516362524631    -0.007037258213
    C            2.320957130699    -0.586142999986    -2.484052417982
    C            2.669401390353    -2.067818352080    -0.688311545340
    C           -0.239517872487     0.129698064528     0.148094146978
    C            0.871645640644    -0.462431214775    -0.557884155420
    C           -2.391182899157     1.270306601362     1.515427995938
    N            2.994370585911    -1.592716312299    -1.902278793277
    O           -3.392284081250     1.795722915772     2.239644911129
    H           -1.273346310251     0.786534248884    -1.627595388125
    H            0.491012672649    -0.366207546393     2.117840939766
    H           -3.141817249379     1.788858176701    -0.429595086036
    H           -1.411064131518     0.631964341466     3.299927344051
    H            0.759046688696     0.814233908316    -2.299468464111
    H            1.353487371843    -1.934876290900     0.950589496485
    H            2.663004194252    -0.267196865137    -3.454473044962
    H            3.261822711996    -2.883831958346    -0.309294287355
    H            3.774005748914    -2.007422565815    -2.395678307637
    H           -4.050690680601     2.201198029137     1.664198580169

*** Psi4 exiting successfully. Buy a developer a beer!
