                              Psi4 1.0.0 Driver

  ==> Input File <==

--------------------------------------------------------------------------

memory 1000 mb

molecule butane {
  symmetry C1
  0 1
  H      1.604   0.760   -8.260
  H      1.745   2.388   -8.880
  H      2.043   1.024   -9.930
  C      2.142   1.395   -8.932
  H      4.169   2.051   -9.210
  H      3.731   1.788   -7.539
  C      3.631   1.416   -8.537
  H      4.429   -0.252   -9.630
  H      5.096   -0.070   -8.026
  C      4.203   -0.012   -8.612
  H      3.563   -2.002   -8.119
  H      2.273   -0.953   -8.653
  H      2.939   -0.771   -7.049
  C      3.166   -1.010   -8.067
  units Angstrom
}

dih_string = "4 7 10 14 320"
set optking fixed_dihedral = $dih_string

optimize('MP2/6-31G(d)')
--------------------------------------------------------------------------

    Molecular point group: c1
  Charge       = 0
  Multiplicity = 1
  Basis Set: 6-31G(D)
  Basis Set:
  @DF-RHF Final Energy:  -157.28440395424934
    Total Energy =                       -157.2844039542492851
  Basis Set:
    Molecular point group: c1
  Basis Set: 6-31G(D)
  Basis Set:
  Basis Set:
	 Reference Energy          =    -157.2844039542493420 [Eh]
	 Singles Energy            =      -0.0000000000000000 [Eh]
	 Same-Spin Energy          =      -0.1253857600789997 [Eh]
	 Opposite-Spin Energy      =      -0.4213397683773484 [Eh]
	 Correlation Energy        =      -0.5467255284563481 [Eh]
	 Total Energy              =    -157.8311294827056770 [Eh]
	 SCS Total Energy          =    -157.8318069296618376 [Eh]
  Basis Set: 6-31G(D)
  Basis Set:
  @DF-RHF Final Energy:  -157.29092257872693
    Total Energy =                       -157.2909225787268213
  Basis Set:
  Basis Set: 6-31G(D)
  Basis Set:
  @DF-RHF Final Energy:  -157.29263356578403
    Total Energy =                       -157.2926335657842287
  @DF-RHF Final Energy:  -157.29361946295154
    Total Energy =                       -157.2936194629517672
  @DF-RHF Final Energy:  -157.29395469810345
    Total Energy =                       -157.2939546981034198
  @DF-RHF Final Energy:  -157.29403260512768
    Total Energy =                       -157.2940326051278248
  @DF-RHF Final Energy:  -157.29407947434748
    Total Energy =                       -157.2940794743475408
  @DF-RHF Final Energy:  -157.29408294405999
    Total Energy =                       -157.2940829440602215
  @DF-RHF Final Energy:  -157.29369872680249
    Total Energy =                       -157.2936987268024325
  @DF-RHF Final Energy:  -157.29402372827658
    Total Energy =                       -157.2940237282765565
  @DF-RHF Final Energy:  -157.29403444099776
    Total Energy =                       -157.2940344409976205
  @DF-RHF Final Energy:  -157.29404769885224
    Total Energy =                       -157.2940476988523528
	 Singles Energy            =      -0.0000000000000000 [Eh]
	 Same-Spin Energy          =      -0.1246744487468224 [Eh]
	 Opposite-Spin Energy      =      -0.4226478022789039 [Eh]
	 Correlation Energy        =      -0.5473222510257263 [Eh]
	 Total Energy              =    -157.8413699498779579 [Eh]
	 SCS Total Energy          =    -157.8427832111692055 [Eh]
  Charge       = 0
  Multiplicity = 1
  Basis Set: 6-31G(D)
  Basis Set:

    Orbital Energies (a.u.)
    -----------------------

    Doubly Occupied:

       1A    -11.216107     2A    -11.215528     3A    -11.209690
       4A    -11.209682     5A     -1.069541     6A     -0.973792
       7A     -0.875783     8A     -0.769984     9A     -0.628846
      10A     -0.617226    11A     -0.568975    12A     -0.536759
      13A     -0.527344    14A     -0.504770    15A     -0.462417
      16A     -0.458242    17A     -0.450747

  @DF-RHF Final Energy:  -157.29404351769369

   => Energetics <=

    Nuclear Repulsion Energy =            133.0783149576952837
    One-Electron Energy =                -474.1538532424338541
    Two-Electron Energy =                 183.7814947670447339
    DFT Exchange-Correlation Energy =       0.0000000000000000
    Empirical Dispersion Energy =           0.0000000000000000
    PCM Polarization Energy =               0.0000000000000000
    EFP Energy =                            0.0000000000000000
    Total Energy =                       -157.2940435176938365
  Basis Set:
    Molecular point group: c1
  Basis Set: 6-31G(D)
  Basis Set:
  Basis Set:
	 Reference Energy          =    -157.2940435176936944 [Eh]
	 Singles Energy            =      -0.0000000000000000 [Eh]
	 Same-Spin Energy          =      -0.1246756939753229 [Eh]
	 Opposite-Spin Energy      =      -0.4226495078714293 [Eh]
	 Correlation Energy        =      -0.5473252018467522 [Eh]
	 Total Energy              =    -157.8413687195404407 [Eh]

	 ================> DF-SCS-MP2 Energies <==================
	-----------------------------------------------------------
	 SCS Same-Spin Scale       =       0.3333333333333333 [-]
	 SCS Opposite-Spin Scale   =       1.2000000000000000 [-]
	 SCS Same-Spin Energy      =      -0.0415585646584409 [Eh]
	 SCS Opposite-Spin Energy  =      -0.5071794094457152 [Eh]
	 SCS Correlation Energy    =      -0.5487379741041561 [Eh]
	 SCS Total Energy          =    -157.8427814917978367 [Eh]
	-----------------------------------------------------------

  -Total Gradient:
     Atom            X                  Y                   Z
    ------   -----------------  -----------------  -----------------
       1        0.000010741777    -0.000014686986     0.000030724154
       2        0.000015455281     0.000013595927     0.000006619706
       3        0.000005906404    -0.000012922304    -0.000018599303
       4       -0.000937227338    -0.000462105066     0.003700439924
       5        0.000002506443     0.000002512141     0.000032685161
       6       -0.000015705729     0.000031123989    -0.000005094597
       7        0.000730010568     0.000355529533    -0.006709634160
       8        0.000010605844    -0.000034240325     0.000005769895
       9       -0.000001462102    -0.000005718606    -0.000031919389
      10        0.001615708665     0.000598861901     0.006536645129
      11        0.000019911375     0.000004526633    -0.000009919226
      12       -0.000004755695     0.000017890359    -0.000031180664
      13       -0.000001836572     0.000015026143     0.000018619477
      14       -0.001449858921    -0.000509393342    -0.003525156107

  **** Optimization is complete! (in 13 steps) ****
    Final optimized geometry and variables:
    Molecular point group: c1

    Geometry (in Angstrom), charge = 0, multiplicity = 1:

    H           -1.776107611355     0.539821038312     0.305876463976
    H           -1.464641006459     2.101915445871    -0.452129762790
    H           -1.329413772351     0.619224688607    -1.403020856738
    C           -1.142496760986     1.057409080607    -0.417114803354
    H            0.928975717431     1.601942063256    -0.695791259174
    H            0.448668348230     1.377388594448     0.973626346160
    C            0.331659349267     0.963226861894    -0.035984208542
    H            1.152157632467    -0.724832221156    -1.092537411516
    H            1.859620817368    -0.465203518908     0.488656026641
    C            0.909271564308    -0.457371080603    -0.056195322405
    H            0.484514737646    -2.501449247218     0.524922778382
    H           -0.918730502704    -1.638342406057    -0.105693416240
    H           -0.331001470665    -1.296087521097     1.526366174576
    C           -0.018987547995    -1.530878145487     0.503392251963

*** Psi4 exiting successfully. Buy a developer a beer!
