                               Psi4 1.1 release

  ==> Input File <==

--------------------------------------------------------------------------

memory 1000 mb

molecule butane {
  symmetry C1
  0 1
  H      1.604   0.760   -8.260
  H      1.745   2.388   -8.880
  H      2.043   1.024   -9.930
  C      2.142   1.395   -8.932
  H      4.169   2.051   -9.210
  H      3.731   1.788   -7.539
  C      3.631   1.416   -8.537
  H      3.665   -0.647   -7.940
  H      4.104   -0.384   -9.610
  C      4.203   -0.012   -8.612
  H      5.941   0.969   -7.818
  H      6.292   -0.184   -9.082
  H      5.876   -0.744   -7.480
  C      5.691   0.009   -8.218
  units Angstrom
}

dih_string = "7 10 14 13 130"
set optking fixed_dihedral = $dih_string

optimize('MP2/aug-cc-pvtz')
--------------------------------------------------------------------------

    Molecular point group: c1
  Charge       = 0
  Multiplicity = 1
  Basis Set: AUG-CC-PVTZ
    Blend: AUG-CC-PVTZ
  Basis Set: (AUG-CC-PVTZ AUX)
    Blend: AUG-CC-PVTZ-JKFIT
  @DF-RHF Final Energy:  -157.34756455281990
    Total Energy =                       -157.3475645528199038
  Basis Set: (AUG-CC-PVTZ AUX)
    Blend: AUG-CC-PVTZ-RI
    Molecular point group: c1
  Basis Set: AUG-CC-PVTZ
    Blend: AUG-CC-PVTZ
  Basis Set: (AUG-CC-PVTZ AUX)
    Blend: AUG-CC-PVTZ-JKFIT
  Basis Set: (AUG-CC-PVTZ AUX)
    Blend: AUG-CC-PVTZ-JKFIT
	 Reference Energy          =    -157.3475645528199038 [Eh]
	 Singles Energy            =      -0.0000000000000000 [Eh]
	 Same-Spin Energy          =      -0.1654790331987730 [Eh]
	 Opposite-Spin Energy      =      -0.6394491482850346 [Eh]
	 Correlation Energy        =      -0.8049281814838076 [Eh]
	 Total Energy              =    -158.1524927343037064 [Eh]
	 SCS Total Energy          =    -158.1700632084948666 [Eh]
  @DF-RHF Final Energy:  -157.35047260862027
    Total Energy =                       -157.3504726086202652
  @DF-RHF Final Energy:  -157.35137670842852
    Total Energy =                       -157.3513767084285178
  @DF-RHF Final Energy:  -157.35167779434826
    Total Energy =                       -157.3516777943482623
  @DF-RHF Final Energy:  -157.35167075877382
    Total Energy =                       -157.3516707587738210
  @DF-RHF Final Energy:  -157.35167750678687
    Total Energy =                       -157.3516775067868707
  Charge       = 0
  Multiplicity = 1
  Basis Set: AUG-CC-PVTZ
    Blend: AUG-CC-PVTZ
  Basis Set: (AUG-CC-PVTZ AUX)
    Blend: AUG-CC-PVTZ-JKFIT

    Orbital Energies (a.u.)
    -----------------------

    Doubly Occupied:

       1A    -11.211673     2A    -11.210881     3A    -11.205889
       4A    -11.205543     5A     -1.072779     6A     -0.980341
       7A     -0.861934     8A     -0.788945     9A     -0.639021
      10A     -0.583296    11A     -0.577516    12A     -0.570022
      13A     -0.510821    14A     -0.497371    15A     -0.470363
      16A     -0.457730    17A     -0.455356

  @DF-RHF Final Energy:  -157.35167546622250

   => Energetics <=

    Nuclear Repulsion Energy =            131.2991611785652708
    One-Electron Energy =                -470.7027121052943244
    Two-Electron Energy =                 182.0518754605065510
    DFT Exchange-Correlation Energy =       0.0000000000000000
    Empirical Dispersion Energy =           0.0000000000000000
    PCM Polarization Energy =               0.0000000000000000
    EFP Energy =                            0.0000000000000000
    Total Energy =                       -157.3516754662225026
  Basis Set: (AUG-CC-PVTZ AUX)
    Blend: AUG-CC-PVTZ-RI
    Molecular point group: c1
  Basis Set: AUG-CC-PVTZ
    Blend: AUG-CC-PVTZ
  Basis Set: (AUG-CC-PVTZ AUX)
    Blend: AUG-CC-PVTZ-JKFIT
  Basis Set: (AUG-CC-PVTZ AUX)
    Blend: AUG-CC-PVTZ-JKFIT
	 Reference Energy          =    -157.3516754662225026 [Eh]
	 Singles Energy            =      -0.0000000000000001 [Eh]
	 Same-Spin Energy          =      -0.1654545251406557 [Eh]
	 Opposite-Spin Energy      =      -0.6398531933853612 [Eh]
	 Correlation Energy        =      -0.8053077185260170 [Eh]
	 Total Energy              =    -158.1569831847485261 [Eh]

	 ================> DF-SCS-MP2 Energies <==================
	-----------------------------------------------------------
	 SCS Same-Spin Scale       =       0.3333333333333333 [-]
	 SCS Opposite-Spin Scale   =       1.2000000000000000 [-]
	 SCS Same-Spin Energy      =      -0.0551515083802186 [Eh]
	 SCS Opposite-Spin Energy  =      -0.7678238320624334 [Eh]
	 SCS Correlation Energy    =      -0.8229753404426521 [Eh]
	 SCS Total Energy          =    -158.1746508066651415 [Eh]
	-----------------------------------------------------------

  -Total Gradient:
     Atom            X                  Y                   Z
    ------   -----------------  -----------------  -----------------
       1       -0.000006601343    -0.000008323180     0.000010068770
       2       -0.000003502964     0.000015622611    -0.000006778902
       3       -0.000016509627    -0.000009503459    -0.000023725570
       4        0.000064012183    -0.000004221051     0.000001451640
       5        0.000012902026    -0.000007166277    -0.000005937709
       6       -0.000009749180     0.000017986701     0.000012986014
       7       -0.000398964338    -0.000234863360     0.001492619982
       8       -0.000046585192     0.000052171169    -0.000004751605
       9        0.000055251762    -0.000055427931    -0.000011655614
      10        0.000398285629     0.000618937861    -0.001579587970
      11        0.000013019270     0.000006920989    -0.000010653294
      12       -0.000009392050    -0.000043631570    -0.000038537664
      13       -0.000373066725     0.001281496631     0.001442725722
      14        0.000320900550    -0.001629999135    -0.001278223801

  **** Optimization is complete! (in 7 steps) ****
    Final optimized geometry and variables:
    Molecular point group: c1

    Geometry (in Angstrom), charge = 0, multiplicity = 1:

    H           -2.353785090194     0.051907201227     0.295929344998
    H           -2.203238874449     1.698566108806    -0.307876507118
    H           -1.903323149623     0.334776297538    -1.379654781387
    C           -1.776730278139     0.699625545103    -0.361882537988
    H            0.250182388398     1.360425773625    -0.624169798818
    H           -0.198764486656     1.086884067844     1.043035937113
    C           -0.312413696895     0.693820784710     0.031777885295
    H           -0.257927661695    -1.340042485150     0.651426574767
    H            0.161971937305    -1.104991394723    -1.022921504634
    C            0.302290853965    -0.692664356549    -0.023741580552
    H            2.074582599921     0.256371828086     0.781810120742
    H            2.423249761341    -0.873153370799    -0.511373870104
    H            2.012870544003    -1.460277363183     1.096331223428
    C            1.786364496557    -0.701661020368     0.351953475771

*** Psi4 exiting successfully. Buy a developer a beer!
