                               Psi4 1.1 release

  ==> Input File <==

--------------------------------------------------------------------------

memory 5 Gb

molecule phepyrOH_anion {
  symmetry C1
  -1 1
  C      1.885   -1.036   -0.112
  C      2.878   -1.652   2.002
  C      0.807   -0.463   0.561
  C      1.800   -1.079   2.676
  C      5.298   -2.252   0.501
  C      3.861   -2.775   -1.355
  C      6.336   -2.834   -0.208
  C      4.963   -3.334   -1.981
  C      2.921   -1.631   0.608
  C      4.040   -2.226   -0.090
  C      0.764   -0.484   1.955
  N      6.201   -3.378   -1.438
  O      -0.227   0.042   2.574
  H      1.904   -1.011   -1.199
  H      3.678   -2.112   2.577
  H      0.011   -0.006   -0.025
  H      1.791   -1.108   3.764
  H      5.476   -1.834   1.487
  H      2.894   -2.773   -1.848
  H      7.336   -2.882   0.210
  H      4.876   -3.774   -2.969
  units Angstrom
}

dih_string = "1 9 10 5 150"
set optking fixed_dihedral = $dih_string

optimize('MP2/aug-cc-PVTZ')
--------------------------------------------------------------------------

    Molecular point group: c1
  Charge       = -1
  Multiplicity = 1
  Basis Set: AUG-CC-PVTZ
    Blend: AUG-CC-PVTZ
  Basis Set: (AUG-CC-PVTZ AUX)
    Blend: AUG-CC-PVTZ-JKFIT
  @DF-RHF Final Energy:  -550.71589950773296
    Total Energy =                       -550.7158995077329564
  Basis Set: (AUG-CC-PVTZ AUX)
    Blend: AUG-CC-PVTZ-RI
    Molecular point group: c1
  Basis Set: AUG-CC-PVTZ
    Blend: AUG-CC-PVTZ
  Basis Set: (AUG-CC-PVTZ AUX)
    Blend: AUG-CC-PVTZ-JKFIT
  Basis Set: (AUG-CC-PVTZ AUX)
    Blend: AUG-CC-PVTZ-JKFIT
	 Reference Energy          =    -550.7158995077329564 [Eh]
	 Singles Energy            =      -0.0000000000000002 [Eh]
	 Same-Spin Energy          =      -0.6140436822747761 [Eh]
	 Opposite-Spin Energy      =      -1.8386497023442101 [Eh]
	 Correlation Energy        =      -2.4526933846189864 [Eh]
	 Total Energy              =    -553.1685928923519668 [Eh]
	 SCS Total Energy          =    -553.1269603779709314 [Eh]
  @DF-RHF Final Energy:  -550.72319830328252
    Total Energy =                       -550.7231983032825156
  @DF-RHF Final Energy:  -550.72771306780919
    Total Energy =                       -550.7277130678091908
  @DF-RHF Final Energy:  -550.72948629408938
    Total Energy =                       -550.7294862940893836
  @DF-RHF Final Energy:  -550.72966392197122
    Total Energy =                       -550.7296639219712233
  @DF-RHF Final Energy:  -550.72967817146298
    Total Energy =                       -550.7296781714629788
  Charge       = -1
  Multiplicity = 1
  Basis Set: AUG-CC-PVTZ
    Blend: AUG-CC-PVTZ
  Basis Set: (AUG-CC-PVTZ AUX)
    Blend: AUG-CC-PVTZ-JKFIT

    Orbital Energies (a.u.)
    -----------------------

    Doubly Occupied:

       1A    -20.321102     2A    -15.443902     3A    -11.161703
       4A    -11.161686     5A    -11.146047     6A    -11.134627
       7A    -11.114246     8A    -11.114181     9A    -11.102022
      10A    -11.101832    11A    -11.077229    12A    -11.063736
      13A    -11.063577    14A     -1.151751    15A     -1.141853
      16A     -1.017155    17A     -0.957731    18A     -0.918170
      19A     -0.869405    20A     -0.839280    21A     -0.742519
      22A     -0.734881    23A     -0.675408    24A     -0.651783
      25A     -0.596947    26A     -0.549129    27A     -0.538205
      28A     -0.511539    29A     -0.486473    30A     -0.483234
      31A     -0.478540    32A     -0.439827    33A     -0.430897
      34A     -0.422617    35A     -0.398729    36A     -0.382197
      37A     -0.376231    38A     -0.348100    39A     -0.318932
      40A     -0.307561    41A     -0.249217    42A     -0.238334
      43A     -0.227058    44A     -0.203498    45A     -0.108459

  @DF-RHF Final Energy:  -550.72968330048366

   => Energetics <=

    Nuclear Repulsion Energy =            682.4153658748965654
    One-Electron Energy =               -2114.6869955827705780
    Two-Electron Energy =                 881.5419464073904692
    DFT Exchange-Correlation Energy =       0.0000000000000000
    Empirical Dispersion Energy =           0.0000000000000000
    PCM Polarization Energy =               0.0000000000000000
    EFP Energy =                            0.0000000000000000
    Total Energy =                       -550.7296833004836571
  Basis Set: (AUG-CC-PVTZ AUX)
    Blend: AUG-CC-PVTZ-RI
    Molecular point group: c1
  Basis Set: AUG-CC-PVTZ
    Blend: AUG-CC-PVTZ
  Basis Set: (AUG-CC-PVTZ AUX)
    Blend: AUG-CC-PVTZ-JKFIT
  Basis Set: (AUG-CC-PVTZ AUX)
    Blend: AUG-CC-PVTZ-JKFIT
	 Reference Energy          =    -550.7296833004836571 [Eh]
	 Singles Energy            =      -0.0000000000000013 [Eh]
	 Same-Spin Energy          =      -0.6123965362980269 [Eh]
	 Opposite-Spin Energy      =      -1.8367046516205445 [Eh]
	 Correlation Energy        =      -2.4491011879185729 [Eh]
	 Total Energy              =    -553.1787844884022434 [Eh]

	 ================> DF-SCS-MP2 Energies <==================
	-----------------------------------------------------------
	 SCS Same-Spin Scale       =       0.3333333333333333 [-]
	 SCS Opposite-Spin Scale   =       1.2000000000000000 [-]
	 SCS Same-Spin Energy      =      -0.2041321787660090 [Eh]
	 SCS Opposite-Spin Energy  =      -2.2040455819446532 [Eh]
	 SCS Correlation Energy    =      -2.4081777607106636 [Eh]
	 SCS Total Energy          =    -553.1378610611943714 [Eh]
	-----------------------------------------------------------

  -Total Gradient:
     Atom            X                  Y                   Z
    ------   -----------------  -----------------  -----------------
       1        0.001033379698     0.001835598009     0.000069454269
       2        0.000024552992    -0.000031158345     0.000004279087
       3       -0.000004333670     0.000013311018    -0.000006898348
       4        0.000005872187     0.000040201729    -0.000002776119
       5        0.000470414613     0.001902431228    -0.000854005386
       6       -0.000043935500    -0.000045066750     0.000008260327
       7       -0.000046223775    -0.000154813638     0.000079353579
       8        0.000063364614     0.000175631039    -0.000051138065
       9       -0.001336065584    -0.001750323342    -0.000561253581
      10       -0.000109987470    -0.001930514396     0.001308197339
      11       -0.000045196741    -0.000068945602     0.000020913445
      12       -0.000027955444    -0.000002741980    -0.000002474257
      13        0.000037155242     0.000011833806    -0.000019091584
      14       -0.000009447363     0.000000540624    -0.000001007849
      15       -0.000015581945    -0.000001284011     0.000000691456
      16       -0.000001240364    -0.000004912938    -0.000007538403
      17        0.000012384103     0.000005337856     0.000007356885
      18       -0.000002615885     0.000015793407    -0.000011119905
      19       -0.000006588809    -0.000011343958     0.000023196744
      20        0.000011862503     0.000048907927    -0.000027745724
      21       -0.000009813413    -0.000048481684     0.000023346093

  **** Optimization is complete! (in 7 steps) ****
    Final optimized geometry and variables:
    Molecular point group: c1

    Geometry (in Angstrom), charge = -1, multiplicity = 1:

    C           -1.320104802188     0.687800183117    -0.538218807628
    C           -0.313698604448     0.135759789809     1.555524262238
    C           -2.371463770281     1.286999019488     0.117334167925
    C           -1.367333384093     0.716717023102     2.223590296600
    C            2.153012548788    -0.550240166522     0.008648094194
    C            0.761173847847    -1.029882242236    -1.832713002823
    C            3.200721876445    -1.109358291366    -0.699640105830
    C            1.868611223645    -1.557501802225    -2.470643756791
    C           -0.255420727489     0.086938105371     0.153094238026
    C            0.863229660729    -0.497835946197    -0.539293304241
    C           -2.473277918635     1.336715195388     1.548986410623
    N            3.094832785893    -1.616910689942    -1.934757966233
    O           -3.440032867215     1.876598801786     2.156119498860
    H           -1.296019544773     0.716498381908    -1.620883574246
    H            0.473118082246    -0.335622873159     2.132123735880
    H           -3.163067950918     1.761600792813    -0.447049442209
    H           -1.393310800695     0.711623906267     3.305143761797
    H            2.340341616205    -0.130467430464     0.985660330737
    H           -0.196456724910    -1.053060719176    -2.331198161395
    H            4.189071052918    -1.137919653304    -0.257839421586
    H            1.765506643125    -1.969060438084    -3.467056293087

*** Psi4 exiting successfully. Buy a developer a beer!
