                               Psi4 1.1 release

  ==> Input File <==

--------------------------------------------------------------------------

memory 5 Gb

molecule phepyrFOH_neutral {
  symmetry C1
  0 1
  C      1.885   -1.036   -0.112
  C      0.807   -0.463   0.561
  C      3.825   -3.269   -0.988
  C      5.328   -1.753   0.119
  C      1.800   -1.079   2.676
  C      4.927   -3.802   -1.637
  C      6.363   -2.354   -0.579
  C      2.921   -1.631   0.608
  C      4.038   -2.225   -0.095
  C      0.764   -0.484   1.955
  C      2.878   -1.652   2.002
  N      6.195   -3.370   -1.455
  O      -0.289   0.076   2.612
  F      3.866   -2.220   2.709
  H      1.904   -1.012   -1.199
  H      0.002   -0.002   -0.006
  H      2.833   -3.663   -1.183
  H      5.532   -0.940   0.809
  H      1.772   -1.099   3.762
  H      4.814   -4.616   -2.345
  H      7.387   -2.023   -0.446
  H      -1.117   -0.360   2.354
  units Angstrom
}

dih_string = "2 10 13 22 60"
set optking fixed_dihedral = $dih_string

optimize('MP2/aug-cc-PVTZ')
--------------------------------------------------------------------------

    Molecular point group: c1
  Charge       = 0
  Multiplicity = 1
  Basis Set: AUG-CC-PVTZ
    Blend: AUG-CC-PVTZ
  Basis Set: (AUG-CC-PVTZ AUX)
    Blend: AUG-CC-PVTZ-JKFIT

    Orbital Energies (a.u.)
    -----------------------

    Doubly Occupied:

       1A    -26.325430     2A    -20.599042     3A    -15.566418
       4A    -11.346688     5A    -11.320713     6A    -11.275967
       7A    -11.275029     8A    -11.266530     9A    -11.264120
      10A    -11.256625    11A    -11.252223    12A    -11.248291
      13A    -11.241039    14A    -11.239447    15A     -1.643675
      16A     -1.416343    17A     -1.251506    18A     -1.181788
      19A     -1.110435    20A     -1.040662    21A     -1.035246
      22A     -1.018782    23A     -0.889681    24A     -0.874677
      25A     -0.852872    26A     -0.826681    27A     -0.776401
      28A     -0.733498    29A     -0.724403    30A     -0.710538
      31A     -0.699163    32A     -0.664989    33A     -0.662125
      34A     -0.651390    35A     -0.631151    36A     -0.626370
      37A     -0.604103    38A     -0.600058    39A     -0.562631
      40A     -0.541078    41A     -0.535643    42A     -0.523409
      43A     -0.513024    44A     -0.495830    45A     -0.420445
      46A     -0.389660    47A     -0.358155    48A     -0.349991
      49A     -0.331608

  @DF-RHF Final Energy:  -650.17051820248003

   => Energetics <=

    Nuclear Repulsion Energy =            813.8301876865845088
    One-Electron Energy =               -2502.5502618865543809
    Two-Electron Energy =                1038.5495559974899606
    DFT Exchange-Correlation Energy =       0.0000000000000000
    Empirical Dispersion Energy =           0.0000000000000000
    PCM Polarization Energy =               0.0000000000000000
    EFP Energy =                            0.0000000000000000
    Total Energy =                       -650.1705182024800251
  Basis Set: (AUG-CC-PVTZ AUX)
    Blend: AUG-CC-PVTZ-RI
    Molecular point group: c1

    Geometry (in Angstrom), charge = 0, multiplicity = 1:

       Center              X                  Y                   Z               Mass
    ------------   -----------------  -----------------  -----------------  -----------------
           C         -1.316721868798     0.756824121103    -0.793007444902    12.000000000000
           C         -2.394721868798     1.329824121103    -0.120007444902    12.000000000000
           C          0.623278131202    -1.476175878897    -1.669007444902    12.000000000000
           C          2.126278131202     0.039824121103    -0.562007444902    12.000000000000
           C         -1.401721868798     0.713824121103     1.994992555098    12.000000000000
           C          1.725278131202    -2.009175878897    -2.318007444902    12.000000000000
           C          3.161278131202    -0.561175878897    -1.260007444902    12.000000000000
           C         -0.280721868798     0.161824121103    -0.073007444902    12.000000000000
           C          0.836278131202    -0.432175878897    -0.776007444902    12.000000000000
           C         -2.437721868798     1.308824121103     1.273992555098    12.000000000000
           C         -0.323721868798     0.140824121103     1.320992555098    12.000000000000
           N          2.993278131202    -1.577175878897    -2.136007444902    14.003074004780
           O         -3.490721868798     1.868824121103     1.930992555098    15.994914619560
           F          0.664278131202    -0.427175878897     2.027992555098    18.998403224000
           H         -1.297721868798     0.780824121103    -1.880007444902     1.007825032070
           H         -3.199721868798     1.790824121103    -0.687007444902     1.007825032070
           H         -0.368721868798    -1.870175878897    -1.864007444902     1.007825032070
           H          2.330278131202     0.852824121103     0.127992555098     1.007825032070
           H         -1.429721868798     0.693824121103     3.080992555098     1.007825032070
           H          1.612278131202    -2.823175878897    -3.026007444902     1.007825032070
           H          4.185278131202    -0.230175878897    -1.127007444902     1.007825032070
           H         -4.318721868798     1.432824121103     1.672992555098     1.007825032070

  Basis Set: AUG-CC-PVTZ
    Blend: AUG-CC-PVTZ
  Basis Set: (AUG-CC-PVTZ AUX)
    Blend: AUG-CC-PVTZ-JKFIT
  Basis Set: (AUG-CC-PVTZ AUX)
    Blend: AUG-CC-PVTZ-JKFIT
	 Reference Energy          =    -650.1705182024800251 [Eh]
	 Singles Energy            =      -0.0000000000000002 [Eh]
	 Same-Spin Energy          =      -0.6771769734598353 [Eh]
	 Opposite-Spin Energy      =      -2.0188593111906141 [Eh]
	 Correlation Energy        =      -2.6960362846504493 [Eh]
	 Total Energy              =    -652.8665544871304292 [Eh]

	 ================> DF-SCS-MP2 Energies <==================
	-----------------------------------------------------------
	 SCS Same-Spin Scale       =       0.3333333333333333 [-]
	 SCS Opposite-Spin Scale   =       1.2000000000000000 [-]
	 SCS Same-Spin Energy      =      -0.2257256578199451 [Eh]
	 SCS Opposite-Spin Energy  =      -2.4226311734287367 [Eh]
	 SCS Correlation Energy    =      -2.6483568312486816 [Eh]
	 SCS Total Energy          =    -652.8188750337286592 [Eh]
	-----------------------------------------------------------

  -Total Gradient:
     Atom            X                  Y                   Z
    ------   -----------------  -----------------  -----------------
       1        0.010367648024    -0.001998127338    -0.010962385758
       2       -0.003433694406     0.001853223761     0.004456160106
       3       -0.007143621463    -0.001040915138     0.002905201475
       4       -0.003692278241     0.005773443318     0.003603117345
       5       -0.004381571236     0.000535218388    -0.004491180866
       6       -0.014054725289    -0.000984623133     0.002591002111
       7       -0.003126663096     0.009486698351     0.008773983313
       8       -0.000681830260     0.000410218521    -0.002560951749
       9       -0.001793860860     0.001105107477    -0.000549170229
      10       -0.006528586174     0.011117467781     0.013439148286
      11        0.020781032310    -0.016666926865     0.005640256353
      12        0.013591875025    -0.006725793077    -0.008453577662
      13        0.010631393500     0.000237364013    -0.010384686730
      14        0.002069281338    -0.000377481951     0.002716369690
      15       -0.003333620161     0.001531226244    -0.006006121284
      16       -0.003416340861     0.001089269575    -0.004802807708
      17       -0.003129327898    -0.002570831074    -0.002735083205
      18        0.002863716755     0.003647223955     0.002775707908
      19        0.001048808512     0.000030989176     0.005572276620
      20        0.000396756912    -0.001771297633    -0.001989057296
      21        0.002525921088     0.000176347835     0.000073754441
      22       -0.009560313511    -0.004857802182     0.000388044843

*** Psi4 exiting successfully. Buy a developer a beer!
