                               Psi4 1.1 release

  ==> Input File <==

--------------------------------------------------------------------------

memory 5 Gb

molecule phepyrFOH_zwitterion {
  symmetry C1
  0 1
  C      1.885   -1.036   -0.112
  C      0.807   -0.463   0.561
  C      5.207   -2.535   0.592
  C      3.945   -2.484   -1.459
  C      1.800   -1.079   2.676
  C      6.263   -3.103   -0.108
  C      5.032   -3.053   -2.107
  C      2.921   -1.631   0.608
  C      4.038   -2.224   -0.095
  C      0.764   -0.484   1.955
  C      2.878   -1.652   2.002
  N      6.146   -3.343   -1.421
  O      -0.227   0.043   2.574
  F      3.866   -2.220   2.709
  H      1.904   -1.013   -1.200
  H      0.011   -0.007   -0.025
  H      5.308   -2.344   1.656
  H      3.044   -2.251   -2.020
  H      1.791   -1.109   3.764
  H      7.206   -3.377   0.343
  H      5.048   -3.289   -3.162
  H      6.934   -3.759   -1.917
  units Angstrom
}

dih_string = "1 8 9 3 165"
set optking fixed_dihedral = $dih_string

optimize('MP2/aug-cc-PVTZ')
--------------------------------------------------------------------------

    Molecular point group: c1
  Charge       = 0
  Multiplicity = 1
  Basis Set: AUG-CC-PVTZ
    Blend: AUG-CC-PVTZ
  Basis Set: (AUG-CC-PVTZ AUX)
    Blend: AUG-CC-PVTZ-JKFIT
  @DF-RHF Final Energy:  -650.10255205792316
    Total Energy =                       -650.1025520579230488
  Basis Set: (AUG-CC-PVTZ AUX)
    Blend: AUG-CC-PVTZ-RI
    Molecular point group: c1
  Basis Set: AUG-CC-PVTZ
    Blend: AUG-CC-PVTZ
  Basis Set: (AUG-CC-PVTZ AUX)
    Blend: AUG-CC-PVTZ-JKFIT
  Basis Set: (AUG-CC-PVTZ AUX)
    Blend: AUG-CC-PVTZ-JKFIT
	 Reference Energy          =    -650.1025520579231625 [Eh]
	 Singles Energy            =      -0.0000000000000003 [Eh]
	 Same-Spin Energy          =      -0.6799578557441176 [Eh]
	 Opposite-Spin Energy      =      -2.0291341770384754 [Eh]
	 Correlation Energy        =      -2.7090920327825936 [Eh]
	 Total Energy              =    -652.8116440907057267 [Eh]
	 SCS Total Energy          =    -652.7641656889506976 [Eh]
  @DF-RHF Final Energy:  -650.11549687497131
    Total Energy =                       -650.1154968749713134
  @DF-RHF Final Energy:  -650.12569047240470
    Total Energy =                       -650.1256904724048127
  @DF-RHF Final Energy:  -650.13289605351815
    Total Energy =                       -650.1328960535181523
  @DF-RHF Final Energy:  -650.13706892166147
    Total Energy =                       -650.1370689216614664
  @DF-RHF Final Energy:  -650.13891633075878
    Total Energy =                       -650.1389163307587751
  @DF-RHF Final Energy:  -650.13968470276120
    Total Energy =                       -650.1396847027613148
  @DF-RHF Final Energy:  -650.13996357008591
    Total Energy =                       -650.1399635700859108
  @DF-RHF Final Energy:  -650.13997349431236
    Total Energy =                       -650.1399734943122439
  Charge       = 0
  Multiplicity = 1
  Basis Set: AUG-CC-PVTZ
    Blend: AUG-CC-PVTZ
  Basis Set: (AUG-CC-PVTZ AUX)
    Blend: AUG-CC-PVTZ-JKFIT

    Orbital Energies (a.u.)
    -----------------------

    Doubly Occupied:

       1A    -26.309228     2A    -20.484390     3A    -15.667648
       4A    -11.335190     5A    -11.332206     6A    -11.331192
       7A    -11.306242     8A    -11.288944     9A    -11.267474
      10A    -11.261331    11A    -11.245218    12A    -11.235637
      13A    -11.208241    14A    -11.205401    15A     -1.626463
      16A     -1.351073    17A     -1.320230    18A     -1.172218
      19A     -1.116780    20A     -1.092562    21A     -1.020314
      22A     -1.006772    23A     -0.912302    24A     -0.905371
      25A     -0.832542    26A     -0.821696    27A     -0.813400
      28A     -0.744185    29A     -0.719650    30A     -0.713330
      31A     -0.694682    32A     -0.677609    33A     -0.673845
      34A     -0.647422    35A     -0.628738    36A     -0.621635
      37A     -0.610435    38A     -0.601604    39A     -0.568686
      40A     -0.551246    41A     -0.532423    42A     -0.530240
      43A     -0.500794    44A     -0.483833    45A     -0.410407
      46A     -0.402312    47A     -0.381447    48A     -0.349414
      49A     -0.259443

  @DF-RHF Final Energy:  -650.13999342240993

   => Energetics <=

    Nuclear Repulsion Energy =            813.6633405809486703
    One-Electron Energy =               -2502.0597733133731708
    Two-Electron Energy =                1038.2564393100144571
    DFT Exchange-Correlation Energy =       0.0000000000000000
    Empirical Dispersion Energy =           0.0000000000000000
    PCM Polarization Energy =               0.0000000000000000
    EFP Energy =                            0.0000000000000000
    Total Energy =                       -650.1399934224100434
  Basis Set: (AUG-CC-PVTZ AUX)
    Blend: AUG-CC-PVTZ-RI
    Molecular point group: c1
  Basis Set: AUG-CC-PVTZ
    Blend: AUG-CC-PVTZ
  Basis Set: (AUG-CC-PVTZ AUX)
    Blend: AUG-CC-PVTZ-JKFIT
  Basis Set: (AUG-CC-PVTZ AUX)
    Blend: AUG-CC-PVTZ-JKFIT
	 Reference Energy          =    -650.1399934224099297 [Eh]
	 Singles Energy            =      -0.0000000000000002 [Eh]
	 Same-Spin Energy          =      -0.6722034306472177 [Eh]
	 Opposite-Spin Energy      =      -2.0231397389577719 [Eh]
	 Correlation Energy        =      -2.6953431696049894 [Eh]
	 Total Energy              =    -652.8353365920148690 [Eh]

	 ================> DF-SCS-MP2 Energies <==================
	-----------------------------------------------------------
	 SCS Same-Spin Scale       =       0.3333333333333333 [-]
	 SCS Opposite-Spin Scale   =       1.2000000000000000 [-]
	 SCS Same-Spin Energy      =      -0.2240678102157392 [Eh]
	 SCS Opposite-Spin Energy  =      -2.4277676867493261 [Eh]
	 SCS Correlation Energy    =      -2.6518354969650653 [Eh]
	 SCS Total Energy          =    -652.7918289193750070 [Eh]
	-----------------------------------------------------------

  -Total Gradient:
     Atom            X                  Y                   Z
    ------   -----------------  -----------------  -----------------
       1        0.000860280073     0.001601362556     0.000066255331
       2       -0.000016168942    -0.000115218075    -0.000046867304
       3        0.000681454601     0.001762386047    -0.000442609442
       4        0.000009059483    -0.000013170265    -0.000028868621
       5       -0.000000858138    -0.000059355548     0.000020696602
       6       -0.000005161357    -0.000000118221    -0.000031239589
       7       -0.000035661200     0.000031056257    -0.000011310152
       8       -0.000925087510    -0.001440050052    -0.000343158847
       9       -0.000618292351    -0.001946003878     0.000738934785
      10        0.000182288768     0.000318632933     0.000023476497
      11       -0.000152246987    -0.000126581561    -0.000042340275
      12        0.000027073627    -0.000021144132     0.000040104486
      13       -0.000066304268    -0.000115372506    -0.000015420490
      14        0.000053488234     0.000055934033     0.000040668308
      15        0.000008555646     0.000030641745     0.000005248667
      16       -0.000011072914     0.000003328953     0.000030226679
      17        0.000021654943     0.000018682943    -0.000007881530
      18        0.000019900709     0.000015472537    -0.000008113102
      19       -0.000009067246    -0.000002196091    -0.000014680835
      20       -0.000008160461     0.000000397681     0.000012144921
      21       -0.000004373064    -0.000001145211     0.000006843947
      22       -0.000011301665     0.000002459851     0.000007889972

  **** Optimization is complete! (in 10 steps) ****
    Final optimized geometry and variables:
    Molecular point group: c1

    Geometry (in Angstrom), charge = 0, multiplicity = 1:

    C           -1.370661028540     0.723071913568    -0.754588925817
    C           -2.422061635259     1.330479721458    -0.154822611575
    C            2.033526332608    -0.806684879346    -0.083180122410
    C            0.760620781265    -0.695210125652    -2.108860741277
    C           -1.471370148738     0.776239434640     2.021311101272
    C            3.069652256000    -1.320010923963    -0.795003193165
    C            1.816187912853    -1.219545659751    -2.781135436303
    C           -0.295175075211     0.116064411751    -0.031914415864
    C            0.791860739833    -0.453865017168    -0.699258856258
    C           -2.551917049001     1.397034629809     1.288445560712
    C           -0.432220127357     0.197707374215     1.383710836803
    N            2.967695608745    -1.530389138008    -2.132591783976
    O           -3.512451131844     1.940150298336     1.849681670491
    F            0.519539221878    -0.388246614979     2.154632163121
    H           -1.328332113055     0.738821328668    -1.831866235909
    H           -3.197318584998     1.800267173095    -0.740861239479
    H            2.185654368711    -0.654177673552     0.967989750743
    H           -0.126097284951    -0.495313700347    -2.683969156233
    H           -1.510420532740     0.770038742477     3.098504885687
    H            4.013035138108    -1.572084549166    -0.339569410645
    H            1.789626032294    -1.418883714045    -3.839659455478
    H            3.743037525887    -1.916853790479    -2.641551750474

*** Psi4 exiting successfully. Buy a developer a beer!
