                              Psi4 1.0.0 Driver

  ==> Input File <==

--------------------------------------------------------------------------

memory 1000 mb

molecule butane {
  symmetry C1
  0 1
  H      1.604   0.760   -8.260
  H      1.745   2.388   -8.880
  H      2.043   1.024   -9.930
  C      2.142   1.395   -8.932
  H      4.169   2.051   -9.210
  H      3.731   1.788   -7.539
  C      3.631   1.416   -8.537
  H      4.429   -0.252   -9.630
  H      5.096   -0.070   -8.026
  C      4.203   -0.012   -8.612
  H      3.563   -2.002   -8.119
  H      2.273   -0.953   -8.653
  H      2.939   -0.771   -7.049
  C      3.166   -1.010   -8.067
  units Angstrom
}

dih_string = "4 7 10 14 320"
set optking fixed_dihedral = $dih_string

optimize('MP2/6-31G(d)')
--------------------------------------------------------------------------

    Molecular point group: c1
  Charge       = 0
  Multiplicity = 1
  Basis Set: 6-31G(D)
  Basis Set:
  @DF-RHF Final Energy:  -157.28440395424900
    Total Energy =                       -157.2844039542490293
  Basis Set:
    Molecular point group: c1
  Basis Set: 6-31G(D)
  Basis Set:
  Basis Set:
	 Reference Energy          =    -157.2844039542490009 [Eh]
	 Singles Energy            =      -0.0000000000000000 [Eh]
	 Same-Spin Energy          =      -0.1253857600789990 [Eh]
	 Opposite-Spin Energy      =      -0.4213397683773518 [Eh]
	 Correlation Energy        =      -0.5467255284563508 [Eh]
	 Total Energy              =    -157.8311294827053644 [Eh]
	 SCS Total Energy          =    -157.8318069296614965 [Eh]
  Basis Set: 6-31G(D)
  Basis Set:
  @DF-RHF Final Energy:  -157.29092257677340
    Total Energy =                       -157.2909225767732551
  Basis Set:
  Basis Set: 6-31G(D)
  Basis Set:
  @DF-RHF Final Energy:  -157.29263356694460
    Total Energy =                       -157.2926335669446871
  @DF-RHF Final Energy:  -157.29361946380672
    Total Energy =                       -157.2936194638067491
  @DF-RHF Final Energy:  -157.29395469860020
    Total Energy =                       -157.2939546986001744
  @DF-RHF Final Energy:  -157.29403260548716
    Total Energy =                       -157.2940326054871889
  @DF-RHF Final Energy:  -157.29407947468860
    Total Energy =                       -157.2940794746886866
  @DF-RHF Final Energy:  -157.29408294397166
    Total Energy =                       -157.2940829439717163
  @DF-RHF Final Energy:  -157.29369986542676
    Total Energy =                       -157.2936998654269019
  @DF-RHF Final Energy:  -157.29402383501932
    Total Energy =                       -157.2940238350193169
  @DF-RHF Final Energy:  -157.29403450168738
    Total Energy =                       -157.2940345016874062
  @DF-RHF Final Energy:  -157.29404773587191
    Total Energy =                       -157.2940477358720557
	 Singles Energy            =      -0.0000000000000000 [Eh]
	 Same-Spin Energy          =      -0.1246744495011688 [Eh]
	 Opposite-Spin Energy      =      -0.4226478009488698 [Eh]
	 Correlation Energy        =      -0.5473222504500387 [Eh]
	 Total Energy              =    -157.8413699863219506 [Eh]
	 SCS Total Energy          =    -157.8427832468442773 [Eh]
  Charge       = 0
  Multiplicity = 1
  Basis Set: 6-31G(D)
  Basis Set:

    Orbital Energies (a.u.)
    -----------------------

    Doubly Occupied:

       1A    -11.216107     2A    -11.215528     3A    -11.209690
       4A    -11.209682     5A     -1.069541     6A     -0.973792
       7A     -0.875783     8A     -0.769984     9A     -0.628846
      10A     -0.617226    11A     -0.568975    12A     -0.536759
      13A     -0.527344    14A     -0.504770    15A     -0.462417
      16A     -0.458242    17A     -0.450747

  @DF-RHF Final Energy:  -157.29404353690336

   => Energetics <=

    Nuclear Repulsion Energy =            133.0783441440744923
    One-Electron Energy =                -474.1539110657070069
    Two-Electron Energy =                 183.7815233847292404
    DFT Exchange-Correlation Energy =       0.0000000000000000
    Empirical Dispersion Energy =           0.0000000000000000
    PCM Polarization Energy =               0.0000000000000000
    EFP Energy =                            0.0000000000000000
    Total Energy =                       -157.2940435369032741
  Basis Set:
    Molecular point group: c1
  Basis Set: 6-31G(D)
  Basis Set:
  Basis Set:
	 Reference Energy          =    -157.2940435369033594 [Eh]
	 Singles Energy            =      -0.0000000000000000 [Eh]
	 Same-Spin Energy          =      -0.1246757052093679 [Eh]
	 Opposite-Spin Energy      =      -0.4226495076341692 [Eh]
	 Correlation Energy        =      -0.5473252128435371 [Eh]
	 Total Energy              =    -157.8413687497468914 [Eh]

	 ================> DF-SCS-MP2 Energies <==================
	-----------------------------------------------------------
	 SCS Same-Spin Scale       =       0.3333333333333333 [-]
	 SCS Opposite-Spin Scale   =       1.2000000000000000 [-]
	 SCS Same-Spin Energy      =      -0.0415585684031226 [Eh]
	 SCS Opposite-Spin Energy  =      -0.5071794091610030 [Eh]
	 SCS Correlation Energy    =      -0.5487379775641257 [Eh]
	 SCS Total Energy          =    -157.8427815144674753 [Eh]
	-----------------------------------------------------------

  -Total Gradient:
     Atom            X                  Y                   Z
    ------   -----------------  -----------------  -----------------
       1        0.000010810612    -0.000014684714     0.000030845211
       2        0.000015531715     0.000013650652     0.000006643596
       3        0.000005908724    -0.000012993433    -0.000018697205
       4       -0.000937051294    -0.000462162499     0.003700379119
       5        0.000002476001     0.000002511458     0.000032816447
       6       -0.000015677800     0.000031234135    -0.000005122256
       7        0.000729752177     0.000355333728    -0.006709547652
       8        0.000010704556    -0.000034304157     0.000005789335
       9       -0.000001503442    -0.000005760232    -0.000032041124
      10        0.001615386232     0.000598815640     0.006536604416
      11        0.000020000952     0.000004553224    -0.000009958726
      12       -0.000004715005     0.000017936718    -0.000031309304
      13       -0.000001868579     0.000015084403     0.000018720930
      14       -0.001449754849    -0.000509214924    -0.003525122788

  **** Optimization is complete! (in 13 steps) ****
    Final optimized geometry and variables:
    Molecular point group: c1

    Geometry (in Angstrom), charge = 0, multiplicity = 1:

    H           -1.776106461985     0.539822589285     0.305884961051
    H           -1.464639413979     2.101918463911    -0.452118572611
    H           -1.329416186649     0.619229357430    -1.403013743499
    C           -1.142496856585     1.057411425890    -0.417106938453
    H            0.928975096503     1.601946271838    -0.695781780645
    H            0.448669861631     1.377382061899     0.973634143975
    C            0.331659265140     0.963226504305    -0.035978816473
    H            1.152153341823    -0.724826745128    -1.092544969401
    H            1.859622180718    -0.465207278267     0.488646572837
    C            0.909270685286    -0.457371031170    -0.056200623924
    H            0.484516873358    -2.501450801937     0.524910971191
    H           -0.918729517196    -1.638342985979    -0.105701950077
    H           -0.331000332468    -1.296093095132     1.526359270647
    C           -0.018986703591    -1.530880260036     0.503384311613

*** Psi4 exiting successfully. Buy a developer a beer!
