                               Psi4 1.1 release

  ==> Input File <==

--------------------------------------------------------------------------

memory 5 Gb

molecule phepyrFOH_cation {
  symmetry C1
  1 1
  C      1.885   -1.036   -0.112
  C      0.807   -0.463   0.561
  C      4.830   -1.443   -0.930
  C      4.321   -3.578   0.063
  C      1.800   -1.079   2.676
  C      5.894   -2.040   -1.592
  C      5.398   -4.120   -0.624
  C      2.921   -1.631   0.608
  C      4.038   -2.225   -0.095
  C      0.764   -0.484   1.955
  C      2.878   -1.652   2.002
  N      6.144   -3.345   -1.422
  O      -0.289   0.076   2.612
  F      3.866   -2.220   2.709
  H      1.904   -1.012   -1.199
  H      0.002   -0.002   -0.006
  H      4.632   -0.385   -1.072
  H      3.719   -4.212   0.708
  H      1.772   -1.099   3.762
  H      6.561   -1.511   -2.259
  H      5.691   -5.159   -0.561
  H      6.930   -3.764   -1.918
  H      -0.877   -0.616   2.956
  units Angstrom
}

dih_string = "2 10 13 23 105"
set optking fixed_dihedral = $dih_string

optimize('MP2/aug-cc-PVTZ')
--------------------------------------------------------------------------

    Molecular point group: c1
  Charge       = 1
  Multiplicity = 1
  Basis Set: AUG-CC-PVTZ
    Blend: AUG-CC-PVTZ
  Basis Set: (AUG-CC-PVTZ AUX)
    Blend: AUG-CC-PVTZ-JKFIT
  @DF-RHF Final Energy:  -650.55459808235685
    Total Energy =                       -650.5545980823567334
  Basis Set: (AUG-CC-PVTZ AUX)
    Blend: AUG-CC-PVTZ-RI
    Molecular point group: c1
  Basis Set: AUG-CC-PVTZ
    Blend: AUG-CC-PVTZ
  Basis Set: (AUG-CC-PVTZ AUX)
    Blend: AUG-CC-PVTZ-JKFIT
  Basis Set: (AUG-CC-PVTZ AUX)
    Blend: AUG-CC-PVTZ-JKFIT
	 Reference Energy          =    -650.5545980823568470 [Eh]
	 Singles Energy            =      -0.0000000000000002 [Eh]
	 Same-Spin Energy          =      -0.6686576023272001 [Eh]
	 Opposite-Spin Energy      =      -2.0132835004900822 [Eh]
	 Correlation Energy        =      -2.6819411028172824 [Eh]
	 Total Energy              =    -653.2365391851741379 [Eh]
	 SCS Total Energy          =    -653.1934241503873864 [Eh]
  @DF-RHF Final Energy:  -650.55941965669297
    Total Energy =                       -650.5594196566928531
  @DF-RHF Final Energy:  -650.56047769849954
    Total Energy =                       -650.5604776984996533
  @DF-RHF Final Energy:  -650.56081211622234
    Total Energy =                       -650.5608121162222233
  @DF-RHF Final Energy:  -650.56109395390718
    Total Energy =                       -650.5610939539071751
  @DF-RHF Final Energy:  -650.56144781493265
    Total Energy =                       -650.5614478149325350
  @DF-RHF Final Energy:  -650.56182378411631
    Total Energy =                       -650.5618237841163136
  @DF-RHF Final Energy:  -650.56215985277458
    Total Energy =                       -650.5621598527745846
  @DF-RHF Final Energy:  -650.56241867095196
    Total Energy =                       -650.5624186709519563
  @DF-RHF Final Energy:  -650.56259952561584
    Total Energy =                       -650.5625995256157239
  @DF-RHF Final Energy:  -650.56269720306739
    Total Energy =                       -650.5626972030672732
  @DF-RHF Final Energy:  -650.56270897977788
    Total Energy =                       -650.5627089797778808
  @DF-RHF Final Energy:  -650.56267110974488
    Total Energy =                       -650.5626711097447696
  @DF-RHF Final Energy:  -650.56272093505731
    Total Energy =                       -650.5627209350573139
  Charge       = 1
  Multiplicity = 1
  Basis Set: AUG-CC-PVTZ
    Blend: AUG-CC-PVTZ
  Basis Set: (AUG-CC-PVTZ AUX)
    Blend: AUG-CC-PVTZ-JKFIT

    Orbital Energies (a.u.)
    -----------------------

    Doubly Occupied:

       1A    -26.444915     2A    -20.696591     3A    -15.834301
       4A    -11.483936     5A    -11.482108     6A    -11.471307
       7A    -11.456625     8A    -11.438018     9A    -11.415624
      10A    -11.412589    11A    -11.387933    12A    -11.386741
      13A    -11.361026    14A    -11.356331    15A     -1.765037
      16A     -1.517915    17A     -1.512017    18A     -1.325780
      19A     -1.276582    20A     -1.241640    21A     -1.170325
      22A     -1.159689    23A     -1.068302    24A     -1.064852
      25A     -0.990523    26A     -0.974260    27A     -0.963047
      28A     -0.895021    29A     -0.873252    30A     -0.866468
      31A     -0.845795    32A     -0.833787    33A     -0.819526
      34A     -0.811039    35A     -0.794431    36A     -0.776302
      37A     -0.763039    38A     -0.754752    39A     -0.744965
      40A     -0.718021    41A     -0.707228    42A     -0.673843
      43A     -0.661088    44A     -0.646035    45A     -0.606986
      46A     -0.581723    47A     -0.540835    48A     -0.476844
      49A     -0.458952

  @DF-RHF Final Energy:  -650.56273107998720

   => Energetics <=

    Nuclear Repulsion Energy =            830.7160592108912169
    One-Electron Energy =               -2521.5416841958003715
    Two-Electron Energy =                1040.2628939049220662
    DFT Exchange-Correlation Energy =       0.0000000000000000
    Empirical Dispersion Energy =           0.0000000000000000
    PCM Polarization Energy =               0.0000000000000000
    EFP Energy =                            0.0000000000000000
    Total Energy =                       -650.5627310799870884
  Basis Set: (AUG-CC-PVTZ AUX)
    Blend: AUG-CC-PVTZ-RI
    Molecular point group: c1
  Basis Set: AUG-CC-PVTZ
    Blend: AUG-CC-PVTZ
  Basis Set: (AUG-CC-PVTZ AUX)
    Blend: AUG-CC-PVTZ-JKFIT
  Basis Set: (AUG-CC-PVTZ AUX)
    Blend: AUG-CC-PVTZ-JKFIT
	 Reference Energy          =    -650.5627310799872021 [Eh]
	 Singles Energy            =      -0.0000000000000001 [Eh]
	 Same-Spin Energy          =      -0.6684978257919709 [Eh]
	 Opposite-Spin Energy      =      -2.0120352504961869 [Eh]
	 Correlation Energy        =      -2.6805330762881576 [Eh]
	 Total Energy              =    -653.2432641562753588 [Eh]

	 ================> DF-SCS-MP2 Energies <==================
	-----------------------------------------------------------
	 SCS Same-Spin Scale       =       0.3333333333333333 [-]
	 SCS Opposite-Spin Scale   =       1.2000000000000000 [-]
	 SCS Same-Spin Energy      =      -0.2228326085973236 [Eh]
	 SCS Opposite-Spin Energy  =      -2.4144423005954243 [Eh]
	 SCS Correlation Energy    =      -2.6372749091927479 [Eh]
	 SCS Total Energy          =    -653.2000059891799992 [Eh]
	-----------------------------------------------------------

  -Total Gradient:
     Atom            X                  Y                   Z
    ------   -----------------  -----------------  -----------------
       1        0.000019884117    -0.000014264938    -0.000005313634
       2       -0.001000568193    -0.001239137060    -0.000338401944
       3       -0.000001382713    -0.000004033616     0.000018354109
       4       -0.000026850139    -0.000004423078     0.000034845078
       5       -0.000002533582     0.000002654930     0.000015146170
       6        0.000017957729    -0.000027438297     0.000009246052
       7        0.000008139333     0.000007889869    -0.000023117027
       8       -0.000042393656     0.000020392374    -0.000004983044
       9        0.000029257792     0.000014030386    -0.000039032558
      10        0.001262252508     0.001981072321     0.000051373509
      11        0.000013722106     0.000013167752    -0.000006682436
      12       -0.000016534431     0.000016088074     0.000006235486
      13        0.000618648090    -0.001300973489     0.002225095207
      14       -0.000005524082     0.000004246648    -0.000016469010
      15       -0.000001765335    -0.000004357008     0.000020199581
      16        0.000012413908    -0.000008353560     0.000016493871
      17        0.000002198939    -0.000030877188     0.000006744734
      18        0.000014190823     0.000012051328    -0.000026117386
      19       -0.000009091744     0.000008230394    -0.000022103534
      20       -0.000005133445    -0.000014142254     0.000010564086
      21        0.000000887169     0.000017614048    -0.000007137853
      22       -0.000000661478     0.000001471522     0.000002922226
      23       -0.000887113721     0.000549090847    -0.001927861674

  **** Optimization is complete! (in 15 steps) ****
    Final optimized geometry and variables:
    Molecular point group: c1

    Geometry (in Angstrom), charge = 1, multiplicity = 1:

    C           -1.170378473081     1.029252025622    -0.711368514604
    C           -2.242320438003     1.598851396683    -0.056867825463
    C            1.460038070552     0.280863270575    -1.805719247083
    C            1.359574990791    -1.666090073574    -0.422909259123
    C           -1.549372592551     0.539808875969     1.992252120529
    C            2.512088203378    -0.275934119930    -2.489365628848
    C            2.412353381996    -2.195261477119    -1.128308564493
    C           -0.271025362116     0.188130172730    -0.045253144468
    C            0.849480325930    -0.402805509032    -0.747602894263
    C           -2.431766029787     1.358353374954     1.300066791545
    C           -0.502185300713    -0.035353053044     1.311270040807
    N            2.956776980386    -1.491395365503    -2.133280993145
    O           -3.450523432042     1.983009523999     1.954430347665
    F            0.359438460329    -0.800547573779     2.003250165592
    H           -1.052180767799     1.198127506215    -1.771018104877
    H           -2.940380448930     2.232758185524    -0.579128809085
    H            1.134557576674     1.270263440315    -2.081897587902
    H            0.926479669973    -2.251136018039     0.369157083635
    H           -1.665684565687     0.368126192341     3.050079827072
    H            3.022651034042     0.213200844481    -3.301945589671
    H            2.835758309646    -3.164859421503    -0.926233675068
    H            3.735952723464    -1.891673177653    -2.640461113223
    H           -4.171179143500     1.367735716347     2.125155324018

*** Psi4 exiting successfully. Buy a developer a beer!
