                               Psi4 1.1 release

  ==> Input File <==

--------------------------------------------------------------------------

memory 5 Gb

molecule phepyrOH_cation {
  symmetry C1
  1 1
  C      1.885   -1.036   -0.112
  C      2.878   -1.652   2.002
  C      0.807   -0.463   0.561
  C      1.800   -1.079   2.676
  C      4.440   -1.719   -1.322
  C      4.716   -3.305   0.469
  C      5.516   -2.309   -1.970
  C      5.786   -3.855   -0.224
  C      2.921   -1.631   0.608
  C      4.040   -2.225   -0.090
  C      0.764   -0.484   1.955
  N      6.150   -3.348   -1.409
  O      -0.288   0.076   2.612
  H      1.904   -1.012   -1.199
  H      3.678   -2.112   2.578
  H      0.003   -0.001   -0.006
  H      1.772   -1.098   3.762
  H      3.931   -0.877   -1.782
  H      4.425   -3.721   1.429
  H      5.897   -1.982   -2.928
  H      6.368   -4.693   0.134
  H      6.938   -3.767   -1.902
  H      -0.877   -0.615   2.956
  units Angstrom
}

dih_string = "3 11 13 23 105"
set optking fixed_dihedral = $dih_string

optimize('MP2/aug-cc-PVTZ')
--------------------------------------------------------------------------

    Molecular point group: c1
  Charge       = 1
  Multiplicity = 1
  Basis Set: AUG-CC-PVTZ
    Blend: AUG-CC-PVTZ
  Basis Set: (AUG-CC-PVTZ AUX)
    Blend: AUG-CC-PVTZ-JKFIT
  @DF-RHF Final Energy:  -551.67060700507830
    Total Energy =                       -551.6706070050782955
  Basis Set: (AUG-CC-PVTZ AUX)
    Blend: AUG-CC-PVTZ-RI
    Molecular point group: c1
  Basis Set: AUG-CC-PVTZ
    Blend: AUG-CC-PVTZ
  Basis Set: (AUG-CC-PVTZ AUX)
    Blend: AUG-CC-PVTZ-JKFIT
  Basis Set: (AUG-CC-PVTZ AUX)
    Blend: AUG-CC-PVTZ-JKFIT
	 Reference Energy          =    -551.6706070050782955 [Eh]
	 Singles Energy            =      -0.0000000000000002 [Eh]
	 Same-Spin Energy          =      -0.5961269035577191 [Eh]
	 Opposite-Spin Energy      =      -1.8246390164032040 [Eh]
	 Correlation Energy        =      -2.4207659199609233 [Eh]
	 Total Energy              =    -554.0913729250391953 [Eh]
	 SCS Total Energy          =    -554.0588827926146678 [Eh]
  @DF-RHF Final Energy:  -551.67540036698904
    Total Energy =                       -551.6754003669890380
  @DF-RHF Final Energy:  -551.67605181763793
    Total Energy =                       -551.6760518176379264
  @DF-RHF Final Energy:  -551.67596674091510
    Total Energy =                       -551.6759667409151007
  Charge       = 1
  Multiplicity = 1
  Basis Set: AUG-CC-PVTZ
    Blend: AUG-CC-PVTZ
  Basis Set: (AUG-CC-PVTZ AUX)
    Blend: AUG-CC-PVTZ-JKFIT

    Orbital Energies (a.u.)
    -----------------------

    Doubly Occupied:

       1A    -20.688491     2A    -15.831253     3A    -11.482237
       4A    -11.482123     5A    -11.451932     6A    -11.425084
       7A    -11.412339     8A    -11.412142     9A    -11.378622
      10A    -11.376670    11A    -11.376017    12A    -11.353889
      13A    -11.352369    14A     -1.509804    15A     -1.508869
      16A     -1.320611    17A     -1.267106    18A     -1.240393
      19A     -1.157172    20A     -1.154806    21A     -1.065158
      22A     -1.058450    23A     -0.971789    24A     -0.964263
      25A     -0.953480    26A     -0.868049    27A     -0.862623
      28A     -0.854725    29A     -0.819200    30A     -0.802934
      31A     -0.781001    32A     -0.770787    33A     -0.758652
      34A     -0.750197    35A     -0.725881    36A     -0.708649
      37A     -0.703686    38A     -0.661055    39A     -0.650074
      40A     -0.643628    41A     -0.592316    42A     -0.576256
      43A     -0.541115    44A     -0.471216    45A     -0.449808

  @DF-RHF Final Energy:  -551.67598608822379

   => Energetics <=

    Nuclear Repulsion Energy =            712.9846530680470096
    One-Electron Energy =               -2148.9474368574733489
    Two-Electron Energy =                 884.2867977012025449
    DFT Exchange-Correlation Energy =       0.0000000000000000
    Empirical Dispersion Energy =           0.0000000000000000
    PCM Polarization Energy =               0.0000000000000000
    EFP Energy =                            0.0000000000000000
    Total Energy =                       -551.6759860882237945
  Basis Set: (AUG-CC-PVTZ AUX)
    Blend: AUG-CC-PVTZ-RI
    Molecular point group: c1
  Basis Set: AUG-CC-PVTZ
    Blend: AUG-CC-PVTZ
  Basis Set: (AUG-CC-PVTZ AUX)
    Blend: AUG-CC-PVTZ-JKFIT
  Basis Set: (AUG-CC-PVTZ AUX)
    Blend: AUG-CC-PVTZ-JKFIT
	 Reference Energy          =    -551.6759860882237945 [Eh]
	 Singles Energy            =      -0.0000000000000001 [Eh]
	 Same-Spin Energy          =      -0.5953595786363218 [Eh]
	 Opposite-Spin Energy      =      -1.8229478804118062 [Eh]
	 Correlation Energy        =      -2.4183074590481279 [Eh]
	 Total Energy              =    -554.0942935472719455 [Eh]

	 ================> DF-SCS-MP2 Energies <==================
	-----------------------------------------------------------
	 SCS Same-Spin Scale       =       0.3333333333333333 [-]
	 SCS Opposite-Spin Scale   =       1.2000000000000000 [-]
	 SCS Same-Spin Energy      =      -0.1984531928787739 [Eh]
	 SCS Opposite-Spin Energy  =      -2.1875374564941672 [Eh]
	 SCS Correlation Energy    =      -2.3859906493729413 [Eh]
	 SCS Total Energy          =    -554.0619767375967513 [Eh]
	-----------------------------------------------------------

  -Total Gradient:
     Atom            X                  Y                   Z
    ------   -----------------  -----------------  -----------------
       1        0.000008222590    -0.000044899357    -0.000025387954
       2        0.000013686732     0.000006383031     0.000023500234
       3       -0.000899276965    -0.001399539496    -0.000035973786
       4       -0.000031793038    -0.000035957272    -0.000028769751
       5        0.000109119880    -0.000036160996    -0.000051224312
       6        0.000080327049    -0.000069543862    -0.000070708889
       7       -0.000057856987     0.000095091009    -0.000067711488
       8       -0.000022458882    -0.000050445193     0.000113387554
       9       -0.000105851598     0.000048263529     0.000051596103
      10        0.000007960620     0.000013522995    -0.000005018564
      11        0.001295869248     0.002101240020    -0.000472653971
      12       -0.000026773297     0.000013775425     0.000022202938
      13        0.000808650552    -0.000786066841     0.002451230275
      14        0.000018236268    -0.000006952141     0.000007230082
      15        0.000004193885     0.000012012080    -0.000023936387
      16        0.000030498073    -0.000035711681     0.000024009473
      17       -0.000004154336     0.000002817913    -0.000042386315
      18       -0.000022712669    -0.000014456513     0.000047628983
      19       -0.000036120755     0.000043573174    -0.000015748001
      20       -0.000004002624    -0.000010810629     0.000025584477
      21       -0.000010154865     0.000017166752    -0.000015278849
      22       -0.000035958429     0.000016122544     0.000020957908
      23       -0.001119650454     0.000120575520    -0.001932529747

  **** Optimization is complete! (in 5 steps) ****
    Final optimized geometry and variables:
    Molecular point group: c1

    Geometry (in Angstrom), charge = 1, multiplicity = 1:

    C           -1.280520362744     0.733345249248    -0.559477564247
    C           -0.306750645681     0.083444739823     1.546403065488
    C           -2.354290617223     1.288699904829     0.108834243742
    C           -1.369356579532     0.659610572128     2.215191142502
    C            1.299148822988     0.019558281034    -1.794105054403
    C            1.596140949027    -1.543303941618    -0.013136502276
    C            2.366957494452    -0.544647534678    -2.445507763251
    C            2.661016365696    -2.085112605845    -0.687832970778
    C           -0.244935288171     0.118588476425     0.150234257826
    C            0.878858152464    -0.466830669114    -0.549832754191
    C           -2.400170964275     1.257904675844     1.497936243596
    N            3.015600734519    -1.575003136168    -1.878581546653
    O           -3.431716082431     1.875572376276     2.143258170663
    H           -1.276278527937     0.737846248217    -1.639120068447
    H            0.501622031139    -0.345799070758     2.119097988911
    H           -3.166240220233     1.751397704415    -0.429497472188
    H           -1.404483793302     0.669151045344     3.293373780137
    H            0.810507954977     0.865581191064    -2.248408500359
    H            1.306519373688    -1.984307721906     0.926314111564
    H            2.734746416021    -0.201141679191    -3.397933563522
    H            3.238127017426    -2.918095918099    -0.322526531340
    H            3.802281484185    -1.982566529241    -2.367418855453
    H           -4.057125969964     1.225194418378     2.478749177608

*** Psi4 exiting successfully. Buy a developer a beer!
