                               Psi4 1.1 release

  ==> Input File <==

--------------------------------------------------------------------------

memory 5 Gb

molecule phepyrF {
  symmetry C1
  0 1
  C      1.885   -1.036   -0.112
  C      0.807   -0.463   0.561
  C      2.921   -1.631   0.608
  C      0.764   -0.484   1.955
  C      5.056   -1.516   3.137
  C      3.893   -3.620   3.071
  C      6.059   -2.154   3.848
  C      4.949   -4.164   3.784
  C      2.878   -1.652   2.002
  C      3.955   -2.270   2.745
  C      1.800   -1.079   2.676
  N      6.034   -3.463   4.183
  F      1.744   -1.089   4.016
  H      1.918   -1.020   -1.198
  H      0.000   -0.000   -0.000
  H      3.755   -2.073   0.068
  H      -0.076   -0.038   2.480
  H      5.139   -0.459   2.903
  H      3.051   -4.240   2.781
  H      6.938   -1.609   4.179
  H      4.949   -5.213   4.062
  units Angstrom
}

dih_string = "3 9 10 5 90"
set optking fixed_dihedral = $dih_string

optimize('MP2/aug-cc-PVTZ')
--------------------------------------------------------------------------

    Molecular point group: c1
  Charge       = 0
  Multiplicity = 1
  Basis Set: AUG-CC-PVTZ
    Blend: AUG-CC-PVTZ
  Basis Set: (AUG-CC-PVTZ AUX)
    Blend: AUG-CC-PVTZ-JKFIT
  @DF-RHF Final Energy:  -575.28245871590320
    Total Energy =                       -575.2824587159032035
  Basis Set: (AUG-CC-PVTZ AUX)
    Blend: AUG-CC-PVTZ-RI
    Molecular point group: c1
  Basis Set: AUG-CC-PVTZ
    Blend: AUG-CC-PVTZ
  Basis Set: (AUG-CC-PVTZ AUX)
    Blend: AUG-CC-PVTZ-JKFIT
  Basis Set: (AUG-CC-PVTZ AUX)
    Blend: AUG-CC-PVTZ-JKFIT
	 Reference Energy          =    -575.2824587159032035 [Eh]
	 Singles Energy            =      -0.0000000000000001 [Eh]
	 Same-Spin Energy          =      -0.6074277582058776 [Eh]
	 Opposite-Spin Energy      =      -1.8319322594005871 [Eh]
	 Correlation Energy        =      -2.4393600176064645 [Eh]
	 Total Energy              =    -577.7218187335096218 [Eh]
	 SCS Total Energy          =    -577.6832533465858432 [Eh]
  @DF-RHF Final Energy:  -575.28818140387614
    Total Energy =                       -575.2881814038761377
  @DF-RHF Final Energy:  -575.28917276456809
    Total Energy =                       -575.2891727645680930
  @DF-RHF Final Energy:  -575.28908309825442
    Total Energy =                       -575.2890830982544230
  @DF-RHF Final Energy:  -575.28903081219573
    Total Energy =                       -575.2890308121957332
  Charge       = 0
  Multiplicity = 1
  Basis Set: AUG-CC-PVTZ
    Blend: AUG-CC-PVTZ
  Basis Set: (AUG-CC-PVTZ AUX)
    Blend: AUG-CC-PVTZ-JKFIT

    Orbital Energies (a.u.)
    -----------------------

    Doubly Occupied:

       1A    -26.315310     2A    -15.565268     3A    -11.335937
       4A    -11.274127     5A    -11.274108     6A    -11.268713
       7A    -11.260234     8A    -11.255817     9A    -11.255222
      10A    -11.250297    11A    -11.246610    12A    -11.240284
      13A    -11.240245    14A     -1.634117    15A     -1.261553
      16A     -1.185305    17A     -1.114909    18A     -1.036975
      19A     -1.036810    20A     -1.028626    21A     -0.891434
      22A     -0.861727    23A     -0.859065    24A     -0.825495
      25A     -0.754942    26A     -0.723548    27A     -0.710510
      28A     -0.702191    29A     -0.670801    30A     -0.670485
      31A     -0.652357    32A     -0.625902    33A     -0.612672
      34A     -0.599463    35A     -0.591546    36A     -0.549297
      37A     -0.534253    38A     -0.531373    39A     -0.516991
      40A     -0.510701    41A     -0.419741    42A     -0.382493
      43A     -0.359393    44A     -0.350866    45A     -0.347218

  @DF-RHF Final Energy:  -575.28903341458738

   => Energetics <=

    Nuclear Repulsion Energy =            714.8667556763615494
    One-Electron Energy =               -2201.6417115406702578
    Two-Electron Energy =                 911.4859224497212153
    DFT Exchange-Correlation Energy =       0.0000000000000000
    Empirical Dispersion Energy =           0.0000000000000000
    PCM Polarization Energy =               0.0000000000000000
    EFP Energy =                            0.0000000000000000
    Total Energy =                       -575.2890334145873794
  Basis Set: (AUG-CC-PVTZ AUX)
    Blend: AUG-CC-PVTZ-RI
    Molecular point group: c1
  Basis Set: AUG-CC-PVTZ
    Blend: AUG-CC-PVTZ
  Basis Set: (AUG-CC-PVTZ AUX)
    Blend: AUG-CC-PVTZ-JKFIT
  Basis Set: (AUG-CC-PVTZ AUX)
    Blend: AUG-CC-PVTZ-JKFIT
	 Reference Energy          =    -575.2890334145873794 [Eh]
	 Singles Energy            =      -0.0000000000000002 [Eh]
	 Same-Spin Energy          =      -0.6065227001854214 [Eh]
	 Opposite-Spin Energy      =      -1.8293990263154369 [Eh]
	 Correlation Energy        =      -2.4359217265008581 [Eh]
	 Total Energy              =    -577.7249551410882304 [Eh]

	 ================> DF-SCS-MP2 Energies <==================
	-----------------------------------------------------------
	 SCS Same-Spin Scale       =       0.3333333333333333 [-]
	 SCS Opposite-Spin Scale   =       1.2000000000000000 [-]
	 SCS Same-Spin Energy      =      -0.2021742333951405 [Eh]
	 SCS Opposite-Spin Energy  =      -2.1952788315785243 [Eh]
	 SCS Correlation Energy    =      -2.3974530649736647 [Eh]
	 SCS Total Energy          =    -577.6864864795610401 [Eh]
	-----------------------------------------------------------

  -Total Gradient:
     Atom            X                  Y                   Z
    ------   -----------------  -----------------  -----------------
       1       -0.000014506592    -0.000003032552     0.000011997745
       2        0.000021400620     0.000000020439    -0.000012302320
       3        0.000006642859     0.000028587344    -0.000005791446
       4        0.000010946717    -0.000000353809     0.000004029712
       5        0.000024135602     0.000014916589     0.000000011967
       6        0.000003526712    -0.000033039524    -0.000010843914
       7        0.000021328016     0.000004197602    -0.000015558402
       8       -0.000035060044     0.000002041721     0.000062869076
       9        0.000012914133    -0.000036475903    -0.000011145405
      10       -0.000032756721     0.000033133371     0.000008741400
      11       -0.000021758069    -0.000021128325     0.000005553432
      12       -0.000004391673     0.000005515496    -0.000031402660
      13        0.000003961101     0.000010032606    -0.000006222215
      14       -0.000000624414     0.000000991152    -0.000000369552
      15       -0.000001039258    -0.000000367860     0.000005485837
      16        0.000000333185    -0.000001399886     0.000011421156
      17       -0.000001935524     0.000000795609    -0.000000890556
      18        0.000002475962    -0.000010618693     0.000000637208
      19        0.000010922102     0.000002559393    -0.000001260113
      20       -0.000004233030     0.000017476656     0.000006028353
      21       -0.000002281691    -0.000013851424    -0.000020989311

  **** Optimization is complete! (in 6 steps) ****
    Final optimized geometry and variables:
    Molecular point group: c1

    Geometry (in Angstrom), charge = 0, multiplicity = 1:

    C           -1.394402267781     0.851171275004    -2.668358068812
    C           -2.463782694310     1.422999468657    -1.993123780739
    C           -0.363169288390     0.259047244938    -1.954384446215
    C           -2.503298961828     1.403431354527    -0.606581005706
    C            1.811260607162     0.337263559248     0.614502796012
    C            0.666984628350    -1.743266373413     0.543006297299
    C            2.817905113623    -0.297962064355     1.325888497525
    C            1.721728979887    -2.290797490498     1.257625833761
    C           -0.380456875134     0.226961479160    -0.562341283830
    C            0.705035440285    -0.396473141654     0.206775402504
    C           -1.464097304740     0.807663057505     0.078700437212
    N            2.789437146803    -1.592476989773     1.649954566875
    F           -1.501757335706     0.788533212492     1.423090021667
    H           -1.363617761300     0.866429817978    -3.746371456016
    H           -3.269426416040     1.885394359660    -2.541807180474
    H            0.473443274425    -0.188509347634    -2.469796745340
    H           -3.320042729114     1.839039104889    -0.054404854060
    H            1.885578553769     1.388632714882     0.380336468781
    H           -0.173554265496    -2.355161928990     0.251775275633
    H            3.686624312091     0.257096212072     1.650793673870
    H            1.709708445603    -3.337461630454     1.527215548520

*** Psi4 exiting successfully. Buy a developer a beer!
