                              Psi4 1.0.0 Driver

  ==> Input File <==

--------------------------------------------------------------------------

memory 1000 mb

molecule butane {
  symmetry C1
  0 1
  H      1.604   0.760   -8.260
  H      1.745   2.388   -8.880
  H      2.043   1.024   -9.930
  C      2.142   1.395   -8.932
  H      4.169   2.051   -9.210
  H      3.731   1.788   -7.539
  C      3.631   1.416   -8.537
  H      3.561   -0.681   -8.078
  H      4.266   -0.318   -9.635
  C      4.203   -0.012   -8.612
  H      6.005   -1.029   -8.035
  H      5.546   0.269   -6.960
  H      6.250   0.633   -8.516
  C      5.608   -0.037   -7.983
  units Angstrom
}

dih_string = "4 7 10 14 190"
set optking fixed_dihedral = $dih_string

optimize('MP2/6-31G(d)')
--------------------------------------------------------------------------

    Molecular point group: c1
  Charge       = 0
  Multiplicity = 1
  Basis Set: 6-31G(D)
  Basis Set:
  @DF-RHF Final Energy:  -157.29370617545194
    Total Energy =                       -157.2937061754519164
  Basis Set:
    Molecular point group: c1
  Basis Set: 6-31G(D)
  Basis Set:
  Basis Set:
	 Reference Energy          =    -157.2937061754519448 [Eh]
	 Singles Energy            =      -0.0000000000000000 [Eh]
	 Same-Spin Energy          =      -0.1243519269461697 [Eh]
	 Opposite-Spin Energy      =      -0.4201312126838606 [Eh]
	 Correlation Energy        =      -0.5444831396300303 [Eh]
	 Total Energy              =    -157.8381893150819621 [Eh]
	 SCS Total Energy          =    -157.8393142729879628 [Eh]
  Basis Set: 6-31G(D)
  Basis Set:
  @DF-RHF Final Energy:  -157.29656012142686
    Total Energy =                       -157.2965601214268645
  Basis Set:
  Basis Set: 6-31G(D)
  Basis Set:
  @DF-RHF Final Energy:  -157.29732867923443
    Total Energy =                       -157.2973286792344538
  @DF-RHF Final Energy:  -157.29753311459106
    Total Energy =                       -157.2975331145911184
  @DF-RHF Final Energy:  -157.29754327592090
    Total Energy =                       -157.2975432759206740
	 Singles Energy            =      -0.0000000000000000 [Eh]
	 Same-Spin Energy          =      -0.1244370865621971 [Eh]
	 Opposite-Spin Energy      =      -0.4222102435521172 [Eh]
	 Correlation Energy        =      -0.5466473301143143 [Eh]
	 Total Energy              =    -157.8441906060352267 [Eh]
	 SCS Total Energy          =    -157.8456745970375152 [Eh]
  Charge       = 0
  Multiplicity = 1
  Basis Set: 6-31G(D)
  Basis Set:

    Orbital Energies (a.u.)
    -----------------------

    Doubly Occupied:

       1A    -11.215763     2A    -11.215162     3A    -11.210301
       4A    -11.210297     5A     -1.070405     6A     -0.979795
       7A     -0.859482     8A     -0.786248     9A     -0.637644
      10A     -0.583636    11A     -0.576003    12A     -0.565841
      13A     -0.513575    14A     -0.494594    15A     -0.468339
      16A     -0.459820    17A     -0.455918

  @DF-RHF Final Energy:  -157.29755248472435

   => Energetics <=

    Nuclear Repulsion Energy =            130.8008374432405390
    One-Electron Energy =                -469.5911349353089008
    Two-Electron Energy =                 181.4927450073439275
    DFT Exchange-Correlation Energy =       0.0000000000000000
    Empirical Dispersion Energy =           0.0000000000000000
    PCM Polarization Energy =               0.0000000000000000
    EFP Energy =                            0.0000000000000000
    Total Energy =                       -157.2975524847244344
  Basis Set:
    Molecular point group: c1
  Basis Set: 6-31G(D)
  Basis Set:
  Basis Set:
	 Reference Energy          =    -157.2975524847243491 [Eh]
	 Singles Energy            =      -0.0000000000000000 [Eh]
	 Same-Spin Energy          =      -0.1244356547404188 [Eh]
	 Opposite-Spin Energy      =      -0.4222022243564652 [Eh]
	 Correlation Energy        =      -0.5466378790968840 [Eh]
	 Total Energy              =    -157.8441903638212409 [Eh]

	 ================> DF-SCS-MP2 Energies <==================
	-----------------------------------------------------------
	 SCS Same-Spin Scale       =       0.3333333333333333 [-]
	 SCS Opposite-Spin Scale   =       1.2000000000000000 [-]
	 SCS Same-Spin Energy      =      -0.0414785515801396 [Eh]
	 SCS Opposite-Spin Energy  =      -0.5066426692277582 [Eh]
	 SCS Correlation Energy    =      -0.5481212208078978 [Eh]
	 SCS Total Energy          =    -157.8456737055322492 [Eh]
	-----------------------------------------------------------

  -Total Gradient:
     Atom            X                  Y                   Z
    ------   -----------------  -----------------  -----------------
       1       -0.000010209241     0.000000770424    -0.000004992249
       2       -0.000014498231     0.000002159534    -0.000001191624
       3        0.000006424662     0.000000688154     0.000000962666
       4       -0.000373748964    -0.000218817616     0.001436138133
       5        0.000009374403    -0.000007112341    -0.000000557865
       6       -0.000004158939    -0.000003760045    -0.000013892424
       7        0.000283270217     0.000215717994    -0.001456244218
       8        0.000011169034     0.000006833661    -0.000006186127
       9       -0.000008076327     0.000008561472    -0.000003456469
      10        0.000688553065     0.000319019713    -0.001290215738
      11        0.000012493226    -0.000003620204     0.000007166771
      12        0.000010649206    -0.000000613573     0.000002143285
      13       -0.000005737475    -0.000000573040    -0.000003134430
      14       -0.000605504637    -0.000319254134     0.001333460288

  **** Optimization is complete! (in 6 steps) ****
    Final optimized geometry and variables:
    Molecular point group: c1

    Geometry (in Angstrom), charge = 0, multiplicity = 1:

    H           -2.347294562935     0.081314267384     0.254696313657
    H           -2.186641173953     1.718862764336    -0.393919750967
    H           -1.901703220179     0.321175896345    -1.438471748152
    C           -1.764996075789     0.710318922696    -0.424897210247
    H            0.273441172716     1.382272419408    -0.686617573808
    H           -0.188376661668     1.106726708634     0.983706578158
    C           -0.291590570982     0.707069977119    -0.032833802203
    H           -0.319696488873    -1.386232592515     0.451863011592
    H            0.367059373217    -1.029921780743    -1.123126534445
    C            0.332543146157    -0.684543125913    -0.082879555502
    H            2.159077849889    -1.734024835761     0.471816007985
    H            1.696378313520    -0.439415724762     1.584458120039
    H            2.405542144888    -0.043978060994     0.014865018866
    C            1.727588798401    -0.730895553631     0.530593673773

*** Psi4 exiting successfully. Buy a developer a beer!
