                               Psi4 1.1 release

  ==> Input File <==

--------------------------------------------------------------------------

memory 5 Gb

molecule phepyrFOH_cation {
  symmetry C1
  1 1
  C      1.885   -1.036   -0.112
  C      0.807   -0.463   0.561
  C      4.830   -1.443   -0.930
  C      4.321   -3.578   0.063
  C      1.800   -1.079   2.676
  C      5.894   -2.040   -1.592
  C      5.398   -4.120   -0.624
  C      2.921   -1.631   0.608
  C      4.038   -2.225   -0.095
  C      0.764   -0.484   1.955
  C      2.878   -1.652   2.002
  N      6.144   -3.345   -1.422
  O      -0.289   0.076   2.612
  F      3.866   -2.220   2.709
  H      1.904   -1.012   -1.199
  H      0.002   -0.002   -0.006
  H      4.632   -0.385   -1.072
  H      3.719   -4.212   0.708
  H      1.772   -1.099   3.762
  H      6.561   -1.511   -2.259
  H      5.691   -5.159   -0.561
  H      6.930   -3.764   -1.918
  H      -1.024   0.232   1.998
  units Angstrom
}

dih_string = "2 10 13 23 15"
set optking fixed_dihedral = $dih_string

optimize('MP2/aug-cc-PVTZ')
--------------------------------------------------------------------------

    Molecular point group: c1
  Charge       = 1
  Multiplicity = 1
  Basis Set: AUG-CC-PVTZ
    Blend: AUG-CC-PVTZ
  Basis Set: (AUG-CC-PVTZ AUX)
    Blend: AUG-CC-PVTZ-JKFIT
  @DF-RHF Final Energy:  -650.55910778467467
    Total Energy =                       -650.5591077846747794
  Basis Set: (AUG-CC-PVTZ AUX)
    Blend: AUG-CC-PVTZ-RI
    Molecular point group: c1
  Basis Set: AUG-CC-PVTZ
    Blend: AUG-CC-PVTZ
  Basis Set: (AUG-CC-PVTZ AUX)
    Blend: AUG-CC-PVTZ-JKFIT
  Basis Set: (AUG-CC-PVTZ AUX)
    Blend: AUG-CC-PVTZ-JKFIT
	 Reference Energy          =    -650.5591077846746657 [Eh]
	 Singles Energy            =      -0.0000000000000005 [Eh]
	 Same-Spin Energy          =      -0.6691248692841532 [Eh]
	 Opposite-Spin Energy      =      -2.0139959217640087 [Eh]
	 Correlation Energy        =      -2.6831207910481623 [Eh]
	 Total Energy              =    -653.2422285757228337 [Eh]
	 SCS Total Energy          =    -653.1989445138862038 [Eh]
  @DF-RHF Final Energy:  -650.56475788334239
    Total Energy =                       -650.5647578833422813
  @DF-RHF Final Energy:  -650.56647105796310
    Total Energy =                       -650.5664710579630992
  @DF-RHF Final Energy:  -650.56698712155639
    Total Energy =                       -650.5669871215563944
  @DF-RHF Final Energy:  -650.56735707960479
    Total Energy =                       -650.5673570796047898
  @DF-RHF Final Energy:  -650.56778897667459
    Total Energy =                       -650.5677889766745920
  @DF-RHF Final Energy:  -650.56824383951505
    Total Energy =                       -650.5682438395151621
  @DF-RHF Final Energy:  -650.56866722182417
    Total Energy =                       -650.5686672218241711
  @DF-RHF Final Energy:  -650.56902186903505
    Total Energy =                       -650.5690218690349411
  @DF-RHF Final Energy:  -650.56929924872895
    Total Energy =                       -650.5692992487290667
  @DF-RHF Final Energy:  -650.56949278840023
    Total Energy =                       -650.5694927884003391
  @DF-RHF Final Energy:  -650.56960025496801
    Total Energy =                       -650.5696002549680088
  @DF-RHF Final Energy:  -650.56961984481052
    Total Energy =                       -650.5696198448104042
  @DF-RHF Final Energy:  -650.56962828728297
    Total Energy =                       -650.5696282872829670
  @DF-RHF Final Energy:  -650.56965548984476
    Total Energy =                       -650.5696554898447630
  Charge       = 1
  Multiplicity = 1
  Basis Set: AUG-CC-PVTZ
    Blend: AUG-CC-PVTZ
  Basis Set: (AUG-CC-PVTZ AUX)
    Blend: AUG-CC-PVTZ-JKFIT

    Orbital Energies (a.u.)
    -----------------------

    Doubly Occupied:

       1A    -26.443719     2A    -20.716494     3A    -15.829673
       4A    -11.480524     5A    -11.478480     6A    -11.471886
       7A    -11.454150     8A    -11.448061     9A    -11.412158
      10A    -11.408337    11A    -11.391378    12A    -11.382435
      13A    -11.360327    14A    -11.355936    15A     -1.764062
      16A     -1.540178    17A     -1.507958    18A     -1.323929
      19A     -1.275899    20A     -1.238028    21A     -1.171031
      22A     -1.161097    23A     -1.065247    24A     -1.063811
      25A     -0.991934    26A     -0.979710    27A     -0.960734
      28A     -0.900513    29A     -0.882627    30A     -0.864988
      31A     -0.834497    32A     -0.833153    33A     -0.819537
      34A     -0.806879    35A     -0.792175    36A     -0.772993
      37A     -0.768672    38A     -0.756492    39A     -0.732859
      40A     -0.719996    41A     -0.707690    42A     -0.686891
      43A     -0.675148    44A     -0.642153    45A     -0.639196
      46A     -0.574614    47A     -0.538173    48A     -0.479038
      49A     -0.447581

  @DF-RHF Final Energy:  -650.56966840886764

   => Energetics <=

    Nuclear Repulsion Energy =            831.3265425121821863
    One-Electron Energy =               -2522.6863449878132997
    Two-Electron Energy =                1040.7901340667633576
    DFT Exchange-Correlation Energy =       0.0000000000000000
    Empirical Dispersion Energy =           0.0000000000000000
    PCM Polarization Energy =               0.0000000000000000
    EFP Energy =                            0.0000000000000000
    Total Energy =                       -650.5696684088677557
  Basis Set: (AUG-CC-PVTZ AUX)
    Blend: AUG-CC-PVTZ-RI
    Molecular point group: c1
  Basis Set: AUG-CC-PVTZ
    Blend: AUG-CC-PVTZ
  Basis Set: (AUG-CC-PVTZ AUX)
    Blend: AUG-CC-PVTZ-JKFIT
  Basis Set: (AUG-CC-PVTZ AUX)
    Blend: AUG-CC-PVTZ-JKFIT
	 Reference Energy          =    -650.5696684088676420 [Eh]
	 Singles Energy            =      -0.0000000000000007 [Eh]
	 Same-Spin Energy          =      -0.6688065419056890 [Eh]
	 Opposite-Spin Energy      =      -2.0123004915899001 [Eh]
	 Correlation Energy        =      -2.6811070334955902 [Eh]
	 Total Energy              =    -653.2507754423631923 [Eh]

	 ================> DF-SCS-MP2 Energies <==================
	-----------------------------------------------------------
	 SCS Same-Spin Scale       =       0.3333333333333333 [-]
	 SCS Opposite-Spin Scale   =       1.2000000000000000 [-]
	 SCS Same-Spin Energy      =      -0.2229355139685630 [Eh]
	 SCS Opposite-Spin Energy  =      -2.4147605899078801 [Eh]
	 SCS Correlation Energy    =      -2.6376961038764439 [Eh]
	 SCS Total Energy          =    -653.2073645127441068 [Eh]
	-----------------------------------------------------------

  -Total Gradient:
     Atom            X                  Y                   Z
    ------   -----------------  -----------------  -----------------
       1        0.000012858959    -0.000017129017     0.000001342713
       2        0.001101413833     0.001441530568     0.000480918275
       3       -0.000003701543    -0.000001573619     0.000025138804
       4       -0.000025159385     0.000016198022     0.000007661724
       5       -0.000004782350     0.000009473678     0.000010773498
       6        0.000019600930    -0.000031961779     0.000001184144
       7        0.000023353873     0.000007254274    -0.000026145589
       8       -0.000027476057     0.000029014251     0.000008329073
       9        0.000028716233    -0.000026697636    -0.000047604285
      10       -0.002029625968    -0.002823710245    -0.000760417513
      11        0.000004523329     0.000009011325    -0.000013928350
      12       -0.000030848069     0.000021481566     0.000015221057
      13        0.002100991965     0.003477130747     0.000333917825
      14       -0.000019320691     0.000016195226     0.000004229945
      15       -0.000004306980     0.000002139444     0.000019193640
      16        0.000012388368    -0.000006543771     0.000015772244
      17        0.000006071470    -0.000028235899     0.000005480854
      18        0.000020037453     0.000004304954    -0.000023450174
      19       -0.000006145596     0.000007359427    -0.000018725635
      20       -0.000006721206    -0.000010516043     0.000013725209
      21       -0.000004980258     0.000017885561    -0.000005611893
      22        0.000001004769     0.000001792579     0.000003130765
      23       -0.001167893089    -0.002114403613    -0.000050136323

  **** Optimization is complete! (in 16 steps) ****
    Final optimized geometry and variables:
    Molecular point group: c1

    Geometry (in Angstrom), charge = 1, multiplicity = 1:

    C           -1.153904407418     1.044419646257    -0.716866666830
    C           -2.232829957395     1.614020096866    -0.077712641416
    C            1.463659763384     0.272684545683    -1.812223526977
    C            1.385790300748    -1.647782848622    -0.392772795198
    C           -1.582145795606     0.526539742456     1.971374523054
    C            2.519591560777    -0.285644862794    -2.486696630377
    C            2.442419110986    -2.178630795919    -1.089729217234
    C           -0.264526719911     0.194731691871    -0.047814917379
    C            0.858922476355    -0.395385199012    -0.738889886824
    C           -2.455272558081     1.352165945247     1.273752517952
    C           -0.523420397599    -0.035373541274     1.304914813898
    N            2.979095172973    -1.489730178518    -2.109512365972
    O           -3.459198849698     1.897483779181     1.979016597152
    F            0.322033611387    -0.806988084968     2.008578909767
    H           -1.019408347586     1.229778428672    -1.771604290154
    H           -2.908085939324     2.254153084008    -0.624804427359
    H            1.130848357305     1.253784901934    -2.107893204126
    H            0.961048609913    -2.224581673502     0.409479910966
    H           -1.729630065694     0.334583351028     3.021449296194
    H            3.023393913162     0.194670554102    -3.308653676321
    H            2.874940438102    -3.140221001282    -0.869399993423
    H            3.761390492722    -1.891331487336    -2.610173931624
    H           -4.114416492755     2.288087637120     1.389879107414

*** Psi4 exiting successfully. Buy a developer a beer!
