                              Psi4 1.0.0 Driver

  ==> Input File <==

--------------------------------------------------------------------------

memory 1000 mb

molecule butane {
  symmetry C1
  0 1
  H      1.604   0.760   -8.260
  H      1.745   2.388   -8.880
  H      2.043   1.024   -9.930
  C      2.142   1.395   -8.932
  H      4.169   2.051   -9.210
  H      3.731   1.788   -7.539
  C      3.631   1.416   -8.537
  H      3.482   -0.705   -8.233
  H      4.429   -0.253   -9.629
  C      4.203   -0.012   -8.612
  H      5.885   -1.088   -7.820
  H      5.263   0.145   -6.750
  H      6.210   0.597   -8.147
  C      5.488   -0.096   -7.768
  units Angstrom
}

dih_string = "4 7 10 14 200"
set optking fixed_dihedral = $dih_string

optimize('B3LYP/cc-PVDZ')
--------------------------------------------------------------------------

    Molecular point group: c1
  Charge       = 0
  Multiplicity = 1
  Basis Set: CC-PVDZ
   => B3LYP Composite Functional <=
  Basis Set:
  @DF-RKS Final Energy:  -158.44790923330629
    Total Energy =                       -158.4479092333062908
    Molecular point group: c1
  Basis Set: CC-PVDZ
  Basis Set:
   => B3LYP Composite Functional <=
  Basis Set: CC-PVDZ
   => B3LYP Composite Functional <=
  Basis Set:
  @DF-RKS Final Energy:  -158.45378405754386
    Total Energy =                       -158.4537840575438565
  Basis Set: CC-PVDZ
  Basis Set:
   => B3LYP Composite Functional <=
  Basis Set: CC-PVDZ
   => B3LYP Composite Functional <=
  Basis Set:
  @DF-RKS Final Energy:  -158.45651952034055
    Total Energy =                       -158.4565195203405494
  Basis Set: CC-PVDZ
  Basis Set:
  @DF-RKS Final Energy:  -158.45737509184835
    Total Energy =                       -158.4573750918483483
  @DF-RKS Final Energy:  -158.45761796668540
    Total Energy =                       -158.4576179666854046
   => B3LYP Composite Functional <=
  Basis Set:
  @DF-RKS Final Energy:  -158.45765228256818
    Total Energy =                       -158.4576522825681764
  Basis Set: CC-PVDZ
  Basis Set:
   => B3LYP Composite Functional <=
  Basis Set: CC-PVDZ
   => B3LYP Composite Functional <=
  Basis Set:
  @DF-RKS Final Energy:  -158.45765058031313
    Total Energy =                       -158.4576505803131283
  Basis Set: CC-PVDZ
  Basis Set:
   => B3LYP Composite Functional <=
  Charge       = 0
  Multiplicity = 1
  Basis Set: CC-PVDZ
   => B3LYP Composite Functional <=
  Basis Set:

    Orbital Energies (a.u.)
    -----------------------

    Doubly Occupied:

       1A    -10.180205     2A    -10.180042     3A    -10.176017
       4A    -10.176012     5A     -0.790163     6A     -0.720588
       7A     -0.627083     8A     -0.572009     9A     -0.462687
      10A     -0.422024    11A     -0.418622    12A     -0.404507
      13A     -0.365084    14A     -0.349912    15A     -0.329726
      16A     -0.320627    17A     -0.318768

  @DF-RKS Final Energy:  -158.45765007883389

   => Energetics <=

    Nuclear Repulsion Energy =            129.9093249560729078
    One-Electron Energy =                -468.3079450332418787
    Two-Electron Energy =                 200.5240633073420327
    DFT Exchange-Correlation Energy =     -20.5830933090069657
    Empirical Dispersion Energy =           0.0000000000000000
    PCM Polarization Energy =               0.0000000000000000
    EFP Energy =                            0.0000000000000000
    Total Energy =                       -158.4576500788338933
    Molecular point group: c1
  Basis Set: CC-PVDZ
  Basis Set:
   => B3LYP Composite Functional <=

  -Total Gradient:
     Atom            X                  Y                   Z
    ------   -----------------  -----------------  -----------------
       1       -0.000010472530    -0.000001152686     0.000010167245
       2       -0.000007123746     0.000013290645    -0.000001490199
       3       -0.000010051662    -0.000005092723    -0.000008070887
       4       -0.000606582691    -0.000358531115     0.002389597984
       5       -0.000006554130    -0.000002578138    -0.000021500927
       6        0.000009307739    -0.000010843640    -0.000019224021
       7        0.000333168389     0.000280177903    -0.002507143776
       8        0.000005726092     0.000018750971    -0.000013967645
       9        0.000019453573     0.000008804353    -0.000007846889
      10        0.001622436621     0.000731087843    -0.001819425221
      11        0.000008151014    -0.000013444373    -0.000000825755
      12       -0.000000692805    -0.000004552706     0.000013461277
      13        0.000010906207     0.000005341061     0.000004330557
      14       -0.001365180474    -0.000659967778     0.001976424311

  **** Optimization is complete! (in 8 steps) ****
    Final optimized geometry and variables:
    Molecular point group: c1

    Geometry (in Angstrom), charge = 0, multiplicity = 1:

    H           -2.344483206684     0.105974350293     0.195649508979
    H           -2.169185393885     1.747787119189    -0.471380943466
    H           -1.892846698889     0.329873769509    -1.509642704680
    C           -1.747168937532     0.729735103105    -0.490970601920
    H            0.302924874606     1.413283555198    -0.739947492295
    H           -0.178004079654     1.129884774667     0.932722089258
    C           -0.269403292142     0.724175519541    -0.092469029009
    H           -0.359877520778    -1.407977206733     0.257640017398
    H            0.563642699075    -0.965253742989    -1.177817510063
    C            0.369858891873    -0.672238030098    -0.129843050801
    H            2.097039242680    -1.785089024428     0.631033402792
    H            1.461199783259    -0.562634348077     1.759095830567
    H            2.417958511875    -0.058394396980     0.347541653276
    C            1.655248926167    -0.777259566062     0.694394877282

*** Psi4 exiting successfully. Buy a developer a beer!
