                               Psi4 1.1 release

  ==> Input File <==

--------------------------------------------------------------------------

memory 5000 mb

molecule butane {
  symmetry C1
  0 1
  H      1.879   2.329   -9.382
  H      1.969   0.602   -9.630
  H      1.544   1.238   -8.060
  C      2.142   1.395   -8.932
  H      4.169   2.051   -9.210
  H      3.731   1.788   -7.539
  C      3.631   1.416   -8.537
  H      3.665   -0.647   -7.940
  H      4.104   -0.384   -9.610
  C      4.203   -0.012   -8.612
  H      6.088   -0.983   -8.270
  H      5.791   0.381   -7.220
  H      6.230   0.644   -8.890
  C      5.691   0.009   -8.218
  units Angstrom
}

dih_string = "10 7 4 3 90"
set optking fixed_dihedral = $dih_string

optimize('MP2/aug-cc-pvtz')
--------------------------------------------------------------------------

    Molecular point group: c1
  Charge       = 0
  Multiplicity = 1
  Basis Set: AUG-CC-PVTZ
    Blend: AUG-CC-PVTZ
  Basis Set: (AUG-CC-PVTZ AUX)
    Blend: AUG-CC-PVTZ-JKFIT
  @DF-RHF Final Energy:  -157.35001424390458
    Total Energy =                       -157.3500142439045817
  Basis Set: (AUG-CC-PVTZ AUX)
    Blend: AUG-CC-PVTZ-RI
    Molecular point group: c1
  Basis Set: AUG-CC-PVTZ
    Blend: AUG-CC-PVTZ
  Basis Set: (AUG-CC-PVTZ AUX)
    Blend: AUG-CC-PVTZ-JKFIT
  Basis Set: (AUG-CC-PVTZ AUX)
    Blend: AUG-CC-PVTZ-JKFIT
	 Reference Energy          =    -157.3500142439045817 [Eh]
	 Singles Energy            =      -0.0000000000000000 [Eh]
	 Same-Spin Energy          =      -0.1654331232713973 [Eh]
	 Opposite-Spin Energy      =      -0.6391105454502845 [Eh]
	 Correlation Energy        =      -0.8045436687216818 [Eh]
	 Total Energy              =    -158.1545579126262737 [Eh]
	 SCS Total Energy          =    -158.1720912728687267 [Eh]
  @DF-RHF Final Energy:  -157.35277634287834
    Total Energy =                       -157.3527763428783430
  @DF-RHF Final Energy:  -157.35364179139344
    Total Energy =                       -157.3536417913934429
  @DF-RHF Final Energy:  -157.35395525906276
    Total Energy =                       -157.3539552590627579
  @DF-RHF Final Energy:  -157.35398096933369
    Total Energy =                       -157.3539809693336906
  Charge       = 0
  Multiplicity = 1
  Basis Set: AUG-CC-PVTZ
    Blend: AUG-CC-PVTZ
  Basis Set: (AUG-CC-PVTZ AUX)
    Blend: AUG-CC-PVTZ-JKFIT

    Orbital Energies (a.u.)
    -----------------------

    Doubly Occupied:

       1A    -11.211477     2A    -11.210799     3A    -11.205925
       4A    -11.205766     5A     -1.073497     6A     -0.981377
       7A     -0.861553     8A     -0.788211     9A     -0.639960
      10A     -0.584742    11A     -0.577719    12A     -0.568548
      13A     -0.513329    14A     -0.495718    15A     -0.470421
      16A     -0.459801    17A     -0.454980

  @DF-RHF Final Energy:  -157.35398779740001

   => Energetics <=

    Nuclear Repulsion Energy =            131.4082297996640989
    One-Electron Energy =                -470.9167859665765263
    Two-Electron Energy =                 182.1545683695123898
    DFT Exchange-Correlation Energy =       0.0000000000000000
    Empirical Dispersion Energy =           0.0000000000000000
    PCM Polarization Energy =               0.0000000000000000
    EFP Energy =                            0.0000000000000000
    Total Energy =                       -157.3539877974000092
  Basis Set: (AUG-CC-PVTZ AUX)
    Blend: AUG-CC-PVTZ-RI
    Molecular point group: c1
  Basis Set: AUG-CC-PVTZ
    Blend: AUG-CC-PVTZ
  Basis Set: (AUG-CC-PVTZ AUX)
    Blend: AUG-CC-PVTZ-JKFIT
  Basis Set: (AUG-CC-PVTZ AUX)
    Blend: AUG-CC-PVTZ-JKFIT
	 Reference Energy          =    -157.3539877974000092 [Eh]
	 Singles Energy            =      -0.0000000000000000 [Eh]
	 Same-Spin Energy          =      -0.1654418126689203 [Eh]
	 Opposite-Spin Energy      =      -0.6395144700076879 [Eh]
	 Correlation Energy        =      -0.8049562826766082 [Eh]
	 Total Energy              =    -158.1589440800766226 [Eh]

	 ================> DF-SCS-MP2 Energies <==================
	-----------------------------------------------------------
	 SCS Same-Spin Scale       =       0.3333333333333333 [-]
	 SCS Opposite-Spin Scale   =       1.2000000000000000 [-]
	 SCS Same-Spin Energy      =      -0.0551472708896401 [Eh]
	 SCS Opposite-Spin Energy  =      -0.7674173640092254 [Eh]
	 SCS Correlation Energy    =      -0.8225646348988656 [Eh]
	 SCS Total Energy          =    -158.1765524322988767 [Eh]
	-----------------------------------------------------------

  -Total Gradient:
     Atom            X                  Y                   Z
    ------   -----------------  -----------------  -----------------
       1       -0.000003295610    -0.000019319924    -0.000004105322
       2       -0.000017785931    -0.000015995277    -0.000012831172
       3       -0.000115186585     0.003355330998     0.000495104527
       4        0.000411040323    -0.004050704575    -0.001546604771
       5       -0.000015265685     0.000003817294     0.000023844178
       6        0.000015213212     0.000004863249     0.000023150755
       7       -0.000866840740     0.000379700063     0.003386018820
       8       -0.000017927680     0.000003708863     0.000002680863
       9        0.000005904167    -0.000011300678     0.000018023952
      10        0.000594861615     0.000357778696    -0.002348965197
      11        0.000015564339    -0.000002628175    -0.000001038173
      12       -0.000010909023     0.000001411734     0.000004330463
      13        0.000013343133     0.000003285950     0.000006492967
      14       -0.000008715540    -0.000009948218    -0.000046101891

  **** Optimization is complete! (in 6 steps) ****
    Final optimized geometry and variables:
    Molecular point group: c1

    Geometry (in Angstrom), charge = 0, multiplicity = 1:

    H           -2.087517922311     1.639433276495    -0.782959248385
    H           -2.008513344175    -0.092130400714    -1.072142361063
    H           -2.408149228509     0.536537673649     0.529568122488
    C           -1.785248596458     0.688995653201    -0.348665447648
    H            0.242304020413     1.334875751129    -0.672859470086
    H           -0.164276980811     1.117881273444     1.010419310536
    C           -0.305854805049     0.691735377888     0.016978527231
    H           -0.248154893899    -1.364298072790     0.614384436223
    H            0.210609191901    -1.081979215066    -1.048811294173
    C            0.314736062428    -0.691794759875    -0.035586700421
    H            2.210467991711    -1.687227032375     0.307681398516
    H            1.894478855879    -0.335234033895     1.389434060586
    H            2.353834162704    -0.034504197079    -0.280530291910
    C            1.776780391726    -0.691737606791     0.367762024377

*** Psi4 exiting successfully. Buy a developer a beer!
