                               Psi4 1.1 release

  ==> Input File <==

--------------------------------------------------------------------------

memory 5 Gb

molecule phepyrOH_neutral {
  symmetry C1
  0 1
  C      1.885   -1.036   -0.112
  C      2.878   -1.652   2.002
  C      0.807   -0.463   0.561
  C      1.800   -1.079   2.676
  C      3.862   -2.773   -1.356
  C      5.298   -2.250   0.501
  C      4.965   -3.329   -1.983
  C      6.337   -2.829   -0.209
  C      2.921   -1.631   0.608
  C      4.040   -2.225   -0.090
  C      0.764   -0.484   1.955
  N      6.202   -3.372   -1.440
  O      -0.288   0.076   2.612
  H      1.904   -1.012   -1.199
  H      3.678   -2.112   2.578
  H      0.003   -0.001   -0.006
  H      1.772   -1.098   3.762
  H      2.895   -2.772   -1.850
  H      5.475   -1.833   1.487
  H      4.879   -3.768   -2.972
  H      7.337   -2.875   0.208
  H      -0.027   0.924   3.005
  units Angstrom
}

dih_string = "3 11 13 22 255"
set optking fixed_dihedral = $dih_string

optimize('MP2/aug-cc-PVTZ')
--------------------------------------------------------------------------

    Molecular point group: c1
  Charge       = 0
  Multiplicity = 1
  Basis Set: AUG-CC-PVTZ
    Blend: AUG-CC-PVTZ
  Basis Set: (AUG-CC-PVTZ AUX)
    Blend: AUG-CC-PVTZ-JKFIT
  @DF-RHF Final Energy:  -551.28184027785505
    Total Energy =                       -551.2818402778550535
  Basis Set: (AUG-CC-PVTZ AUX)
    Blend: AUG-CC-PVTZ-RI
    Molecular point group: c1
  Basis Set: AUG-CC-PVTZ
    Blend: AUG-CC-PVTZ
  Basis Set: (AUG-CC-PVTZ AUX)
    Blend: AUG-CC-PVTZ-JKFIT
  Basis Set: (AUG-CC-PVTZ AUX)
    Blend: AUG-CC-PVTZ-JKFIT
	 Reference Energy          =    -551.2818402778550535 [Eh]
	 Singles Energy            =      -0.0000000000000002 [Eh]
	 Same-Spin Energy          =      -0.6046960818480354 [Eh]
	 Opposite-Spin Energy      =      -1.8303356901449364 [Eh]
	 Correlation Energy        =      -2.4350317719929717 [Eh]
	 Total Energy              =    -553.7168720498480070 [Eh]
	 SCS Total Energy          =    -553.6798084666449995 [Eh]
  @DF-RHF Final Energy:  -551.28764410185181
    Total Energy =                       -551.2876441018518108
  @DF-RHF Final Energy:  -551.28884247695009
    Total Energy =                       -551.2888424769500944
  @DF-RHF Final Energy:  -551.28885060134235
    Total Energy =                       -551.2888506013423466
  @DF-RHF Final Energy:  -551.28895864266178
    Total Energy =                       -551.2889586426617825
  @DF-RHF Final Energy:  -551.28901903590690
    Total Energy =                       -551.2890190359069038
  Charge       = 0
  Multiplicity = 1
  Basis Set: AUG-CC-PVTZ
    Blend: AUG-CC-PVTZ
  Basis Set: (AUG-CC-PVTZ AUX)
    Blend: AUG-CC-PVTZ-JKFIT

    Orbital Energies (a.u.)
    -----------------------

    Doubly Occupied:

       1A    -20.588195     2A    -15.561845     3A    -11.304978
       4A    -11.272765     5A    -11.272666     6A    -11.266344
       7A    -11.252166     8A    -11.250462     9A    -11.249832
      10A    -11.242857    11A    -11.241438    12A    -11.237270
      13A    -11.237094    14A     -1.402101    15A     -1.259202
      16A     -1.176090    17A     -1.106420    18A     -1.039476
      19A     -1.030711    20A     -1.012910    21A     -0.879721
      22A     -0.872248    23A     -0.840772    24A     -0.812391
      25A     -0.745314    26A     -0.724198    27A     -0.683519
      28A     -0.662912    29A     -0.650321    30A     -0.645692
      31A     -0.635125    32A     -0.606577    33A     -0.597077
      34A     -0.594264    35A     -0.549736    36A     -0.542277
      37A     -0.533366    38A     -0.515950    39A     -0.509353
      40A     -0.482773    41A     -0.418456    42A     -0.401837
      43A     -0.354865    44A     -0.349210    45A     -0.320250

  @DF-RHF Final Energy:  -551.28903189077528

   => Energetics <=

    Nuclear Repulsion Energy =            697.3363085613947305
    One-Electron Energy =               -2131.3846318853807134
    Two-Electron Energy =                 882.7592914332108194
    DFT Exchange-Correlation Energy =       0.0000000000000000
    Empirical Dispersion Energy =           0.0000000000000000
    PCM Polarization Energy =               0.0000000000000000
    EFP Energy =                            0.0000000000000000
    Total Energy =                       -551.2890318907752771
  Basis Set: (AUG-CC-PVTZ AUX)
    Blend: AUG-CC-PVTZ-RI
    Molecular point group: c1
  Basis Set: AUG-CC-PVTZ
    Blend: AUG-CC-PVTZ
  Basis Set: (AUG-CC-PVTZ AUX)
    Blend: AUG-CC-PVTZ-JKFIT
  Basis Set: (AUG-CC-PVTZ AUX)
    Blend: AUG-CC-PVTZ-JKFIT
	 Reference Energy          =    -551.2890318907752771 [Eh]
	 Singles Energy            =      -0.0000000000000002 [Eh]
	 Same-Spin Energy          =      -0.6035478610032315 [Eh]
	 Opposite-Spin Energy      =      -1.8279787348909688 [Eh]
	 Correlation Energy        =      -2.4315265958942005 [Eh]
	 Total Energy              =    -553.7205584866694608 [Eh]

	 ================> DF-SCS-MP2 Energies <==================
	-----------------------------------------------------------
	 SCS Same-Spin Scale       =       0.3333333333333333 [-]
	 SCS Opposite-Spin Scale   =       1.2000000000000000 [-]
	 SCS Same-Spin Energy      =      -0.2011826203344105 [Eh]
	 SCS Opposite-Spin Energy  =      -2.1935744818691627 [Eh]
	 SCS Correlation Energy    =      -2.3947571022035734 [Eh]
	 SCS Total Energy          =    -553.6837889929788616 [Eh]
	-----------------------------------------------------------

  -Total Gradient:
     Atom            X                  Y                   Z
    ------   -----------------  -----------------  -----------------
       1       -0.000007531976     0.000028971150    -0.000010315924
       2        0.000000662349     0.000001338477     0.000021691744
       3        0.000499919564     0.000948455097     0.000070772326
       4        0.000000041415     0.000020839348     0.000013599774
       5       -0.000000163923    -0.000009458277    -0.000011615259
       6        0.000014018460     0.000006319084     0.000002800607
       7       -0.000000439161     0.000051049872    -0.000028062161
       8       -0.000012117708    -0.000045705231     0.000035857137
       9        0.000024893811    -0.000027780240    -0.000019128024
      10       -0.000031237453     0.000010449511     0.000020825699
      11       -0.000855274284    -0.001285501212    -0.000383729393
      12        0.000013675576    -0.000007931534    -0.000008137934
      13        0.000703001725    -0.000394174079     0.001495839862
      14        0.000004043956    -0.000007958925     0.000007140939
      15       -0.000001888349     0.000002250804    -0.000009738144
      16        0.000001561978     0.000001859423     0.000000905825
      17       -0.000001208982    -0.000004300258    -0.000001539887
      18        0.000010924254    -0.000006906894     0.000002967133
      19        0.000004290360    -0.000000702024    -0.000013035892
      20       -0.000007536752    -0.000018776118     0.000008178026
      21        0.000004186495     0.000022069148    -0.000006699743
      22       -0.000363821355     0.000715592883    -0.001188576696

  **** Optimization is complete! (in 7 steps) ****
    Final optimized geometry and variables:
    Molecular point group: c1

    Geometry (in Angstrom), charge = 0, multiplicity = 1:

    C           -1.239640573468     0.769329468621    -0.560170105252
    C           -0.312055859676     0.057530697030     1.530439547383
    C           -2.307153969732     1.348323003645     0.106776498709
    C           -1.382841309878     0.624997475803     2.202013519275
    C            0.745290592891    -1.102313241348    -1.803425937535
    C            2.189961071642    -0.473069844064    -0.033641282480
    C            1.844030517598    -1.661369456586    -2.436006496272
    C            3.228878753353    -1.059266986210    -0.738450094610
    C           -0.224307770933     0.119576778999     0.140299455375
    C            0.903849407404    -0.485450611879    -0.565805075833
    C           -2.378445919924     1.278095462694     1.489650336712
    N            3.077828877063    -1.650196148102    -1.926047263689
    O           -3.471598468295     1.814528978039     2.138898863006
    H           -1.177611930984     0.850235498626    -1.635245231814
    H            0.446652739838    -0.470016025367     2.089243145679
    H           -3.089481741791     1.859989805483    -0.432003158145
    H           -1.464161633681     0.553114332714     3.275894468988
    H           -0.230200202632    -1.170507901131    -2.260797516367
    H            2.387303875624     0.011149173163     0.910853364689
    H            1.727449806123    -2.147941628802    -3.394352850794
    H            4.231608761137    -1.047699020773    -0.334453858483
    H           -3.210518029443     2.641218058395     2.553727229021

*** Psi4 exiting successfully. Buy a developer a beer!
