                               Psi4 1.1 release

  ==> Input File <==

--------------------------------------------------------------------------

memory 5 Gb

molecule phepyrF {
  symmetry C1
  0 1
  C      1.885   -1.036   -0.112
  C      0.807   -0.463   0.561
  C      2.921   -1.631   0.608
  C      0.764   -0.484   1.955
  C      3.672   -3.119   3.809
  C      5.278   -2.018   2.397
  C      4.739   -3.687   4.487
  C      6.272   -2.634   3.138
  C      2.878   -1.652   2.002
  C      3.955   -2.270   2.745
  C      1.800   -1.079   2.676
  N      6.036   -3.465   4.178
  F      1.744   -1.089   4.016
  H      1.918   -1.020   -1.198
  H      0.000   -0.000   -0.000
  H      3.755   -2.073   0.068
  H      -0.076   -0.038   2.480
  H      2.653   -3.341   4.110
  H      5.537   -1.360   1.573
  H      4.571   -4.358   5.323
  H      7.320   -2.469   2.908
  units Angstrom
}

dih_string = "3 9 10 5 225"
set optking fixed_dihedral = $dih_string

optimize('MP2/aug-cc-PVTZ')
--------------------------------------------------------------------------

    Molecular point group: c1
  Charge       = 0
  Multiplicity = 1
  Basis Set: AUG-CC-PVTZ
    Blend: AUG-CC-PVTZ
  Basis Set: (AUG-CC-PVTZ AUX)
    Blend: AUG-CC-PVTZ-JKFIT
  @DF-RHF Final Energy:  -575.28347062477724
    Total Energy =                       -575.2834706247772374
  Basis Set: (AUG-CC-PVTZ AUX)
    Blend: AUG-CC-PVTZ-RI
    Molecular point group: c1
  Basis Set: AUG-CC-PVTZ
    Blend: AUG-CC-PVTZ
  Basis Set: (AUG-CC-PVTZ AUX)
    Blend: AUG-CC-PVTZ-JKFIT
  Basis Set: (AUG-CC-PVTZ AUX)
    Blend: AUG-CC-PVTZ-JKFIT
	 Reference Energy          =    -575.2834706247772374 [Eh]
	 Singles Energy            =      -0.0000000000000007 [Eh]
	 Same-Spin Energy          =      -0.6083675815048829 [Eh]
	 Opposite-Spin Energy      =      -1.8326024784015054 [Eh]
	 Correlation Energy        =      -2.4409700599063893 [Eh]
	 Total Energy              =    -577.7244406846836000 [Eh]
	 SCS Total Energy          =    -577.6853827926939857 [Eh]
  @DF-RHF Final Energy:  -575.28916864883377
    Total Energy =                       -575.2891686488337655
  @DF-RHF Final Energy:  -575.29048331698618
    Total Energy =                       -575.2904833169861831
  @DF-RHF Final Energy:  -575.29048628780436
    Total Energy =                       -575.2904862878043559
  @DF-RHF Final Energy:  -575.29046207196666
    Total Energy =                       -575.2904620719666582
  Charge       = 0
  Multiplicity = 1
  Basis Set: AUG-CC-PVTZ
    Blend: AUG-CC-PVTZ
  Basis Set: (AUG-CC-PVTZ AUX)
    Blend: AUG-CC-PVTZ-JKFIT

    Orbital Energies (a.u.)
    -----------------------

    Doubly Occupied:

       1A    -26.318041     2A    -15.563793     3A    -11.338622
       4A    -11.273087     5A    -11.271968     6A    -11.269426
       7A    -11.262718     8A    -11.257307     9A    -11.257081
      10A    -11.251482    11A    -11.247819    12A    -11.240117
      13A    -11.238205    14A     -1.637055    15A     -1.260261
      16A     -1.186888    17A     -1.115803    18A     -1.039930
      19A     -1.034332    20A     -1.029538    21A     -0.893323
      22A     -0.873374    23A     -0.847476    24A     -0.827178
      25A     -0.756861    26A     -0.723023    27A     -0.715452
      28A     -0.704973    29A     -0.672527    30A     -0.664359
      31A     -0.653383    32A     -0.625976    33A     -0.612319
      34A     -0.597926    35A     -0.592965    36A     -0.550963
      37A     -0.540420    38A     -0.526923    39A     -0.520040
      40A     -0.509899    41A     -0.419293    42A     -0.406362
      43A     -0.355153    44A     -0.348971    45A     -0.334678

  @DF-RHF Final Energy:  -575.29048752611754

   => Energetics <=

    Nuclear Repulsion Energy =            715.7899587475063754
    One-Electron Energy =               -2203.4263121989924912
    Two-Electron Energy =                 912.3458659253686847
    DFT Exchange-Correlation Energy =       0.0000000000000000
    Empirical Dispersion Energy =           0.0000000000000000
    PCM Polarization Energy =               0.0000000000000000
    EFP Energy =                            0.0000000000000000
    Total Energy =                       -575.2904875261175448
  Basis Set: (AUG-CC-PVTZ AUX)
    Blend: AUG-CC-PVTZ-RI
    Molecular point group: c1
  Basis Set: AUG-CC-PVTZ
    Blend: AUG-CC-PVTZ
  Basis Set: (AUG-CC-PVTZ AUX)
    Blend: AUG-CC-PVTZ-JKFIT
  Basis Set: (AUG-CC-PVTZ AUX)
    Blend: AUG-CC-PVTZ-JKFIT
	 Reference Energy          =    -575.2904875261175448 [Eh]
	 Singles Energy            =      -0.0000000000000001 [Eh]
	 Same-Spin Energy          =      -0.6073765323233091 [Eh]
	 Opposite-Spin Energy      =      -1.8300764433870989 [Eh]
	 Correlation Energy        =      -2.4374529757104080 [Eh]
	 Total Energy              =    -577.7279405018279022 [Eh]

	 ================> DF-SCS-MP2 Energies <==================
	-----------------------------------------------------------
	 SCS Same-Spin Scale       =       0.3333333333333333 [-]
	 SCS Opposite-Spin Scale   =       1.2000000000000000 [-]
	 SCS Same-Spin Energy      =      -0.2024588441077697 [Eh]
	 SCS Opposite-Spin Energy  =      -2.1960917320645184 [Eh]
	 SCS Correlation Energy    =      -2.3985505761722878 [Eh]
	 SCS Total Energy          =    -577.6890381022898282 [Eh]
	-----------------------------------------------------------

  -Total Gradient:
     Atom            X                  Y                   Z
    ------   -----------------  -----------------  -----------------
       1       -0.000016045141     0.000043392448     0.000038483497
       2        0.000023128898    -0.000050253549    -0.000046629112
       3       -0.000316872284    -0.000566513858    -0.000007204101
       4        0.000003029969    -0.000000077442     0.000060102415
       5       -0.000028395227    -0.000474132363    -0.000377865780
       6        0.000009414793    -0.000039357366    -0.000038059568
       7       -0.000009472335    -0.000060477858    -0.000075601432
       8        0.000002879287     0.000088892436     0.000117495238
       9        0.000573625822     0.000502947644    -0.000185247471
      10       -0.000241986398     0.000544699853     0.000577911282
      11       -0.000015057509     0.000060233386    -0.000098506972
      12        0.000006727540    -0.000003121182    -0.000024137406
      13        0.000014945474    -0.000041003526     0.000090719541
      14       -0.000001932518     0.000001645609    -0.000011010435
      15       -0.000008580084     0.000003397835    -0.000007240095
      16        0.000015492698    -0.000010369525    -0.000004684093
      17       -0.000004165458     0.000002946361     0.000003918272
      18       -0.000001998710    -0.000008283485     0.000013183740
      19        0.000003846156     0.000011719007    -0.000010990641
      20       -0.000011135773     0.000023336630     0.000031145884
      21        0.000002550794    -0.000029621053    -0.000045782771

  **** Optimization is complete! (in 6 steps) ****
    Final optimized geometry and variables:
    Molecular point group: c1

    Geometry (in Angstrom), charge = 0, multiplicity = 1:

    C           -1.344137708888     0.846643452965    -2.673561395417
    C           -2.439124931568     1.409898241351    -2.032864834889
    C           -0.329786009616     0.269249164992    -1.927112776702
    C           -2.514186884907     1.393107907628    -0.648112685049
    C            0.453132746145    -1.235684209626     1.307643490724
    C            2.030655725627    -0.164102258221    -0.105835394169
    C            1.521583826698    -1.824529629343     1.964640129014
    C            3.032590050572    -0.795967776643     0.613048629558
    C           -0.377795630220     0.237364814094    -0.532940769413
    C            0.700072550148    -0.380115970260     0.238685361059
    C           -1.491509743480     0.809147078942     0.070193353807
    N            2.799728524572    -1.619571633006     1.637110914501
    F           -1.573183469310     0.822126344711     1.414448485376
    H           -1.284602192723     0.850022583258    -3.750378660747
    H           -3.235087285120     1.860509674829    -2.604855751589
    H            0.513551972624    -0.188286693381    -2.422374927691
    H           -3.346038068580     1.827494361807    -0.117856515070
    H           -0.556964865508    -1.449864711629     1.617769985599
    H            2.283394322701     0.504230740619    -0.915329524178
    H            1.342777378673    -2.495162198341     2.793211423287
    H            4.069876477982    -0.631352076361     0.357028670275

*** Psi4 exiting successfully. Buy a developer a beer!
