                               Psi4 1.1 release

  ==> Input File <==

--------------------------------------------------------------------------

memory 5 Gb

molecule phepyrOH_cation {
  symmetry C1
  1 1
  C      1.885   -1.036   -0.112
  C      2.878   -1.652   2.002
  C      0.807   -0.463   0.561
  C      1.800   -1.079   2.676
  C      5.329   -1.752   0.130
  C      3.828   -3.271   -0.984
  C      6.383   -2.341   -0.554
  C      4.920   -3.821   -1.640
  C      2.921   -1.631   0.608
  C      4.040   -2.225   -0.090
  C      0.764   -0.484   1.955
  N      6.151   -3.346   -1.409
  O      -0.288   0.076   2.612
  H      1.904   -1.012   -1.199
  H      3.678   -2.112   2.578
  H      0.003   -0.001   -0.006
  H      1.772   -1.098   3.762
  H      5.524   -0.938   0.822
  H      2.832   -3.660   -1.175
  H      7.416   -2.039   -0.445
  H      4.850   -4.635   -2.349
  H      6.940   -3.764   -1.902
  H      -0.175   -0.018   3.571
  units Angstrom
}

dih_string = "1 9 10 5 120"
set optking fixed_dihedral = $dih_string

optimize('MP2/aug-cc-PVTZ')
--------------------------------------------------------------------------

    Molecular point group: c1
  Charge       = 1
  Multiplicity = 1
  Basis Set: AUG-CC-PVTZ
    Blend: AUG-CC-PVTZ
  Basis Set: (AUG-CC-PVTZ AUX)
    Blend: AUG-CC-PVTZ-JKFIT
  @DF-RHF Final Energy:  -551.67303899620993
    Total Energy =                       -551.6730389962099252
  Basis Set: (AUG-CC-PVTZ AUX)
    Blend: AUG-CC-PVTZ-RI
    Molecular point group: c1
  Basis Set: AUG-CC-PVTZ
    Blend: AUG-CC-PVTZ
  Basis Set: (AUG-CC-PVTZ AUX)
    Blend: AUG-CC-PVTZ-JKFIT
  Basis Set: (AUG-CC-PVTZ AUX)
    Blend: AUG-CC-PVTZ-JKFIT
	 Reference Energy          =    -551.6730389962099252 [Eh]
	 Singles Energy            =      -0.0000000000000002 [Eh]
	 Same-Spin Energy          =      -0.5961536981956271 [Eh]
	 Opposite-Spin Energy      =      -1.8247709213267860 [Eh]
	 Correlation Energy        =      -2.4209246195224132 [Eh]
	 Total Energy              =    -554.0939636157323775 [Eh]
	 SCS Total Energy          =    -554.0614820012006021 [Eh]
  @DF-RHF Final Energy:  -551.67750530839771
    Total Energy =                       -551.6775053083977127
  @DF-RHF Final Energy:  -551.67847736406736
    Total Energy =                       -551.6784773640673620
  @DF-RHF Final Energy:  -551.67864638579124
    Total Energy =                       -551.6786463857912395
  @DF-RHF Final Energy:  -551.67870227079334
    Total Energy =                       -551.6787022707933374
  @DF-RHF Final Energy:  -551.67872515273700
    Total Energy =                       -551.6787251527370017
  @DF-RHF Final Energy:  -551.67869970153174
    Total Energy =                       -551.6786997015317411
  @DF-RHF Final Energy:  -551.67870424188277
    Total Energy =                       -551.6787042418827696
  @DF-RHF Final Energy:  -551.67868633059049
    Total Energy =                       -551.6786863305904944
  @DF-RHF Final Energy:  -551.67865950862279
    Total Energy =                       -551.6786595086227862
  @DF-RHF Final Energy:  -551.67875366799080
    Total Energy =                       -551.6787536679908044
  @DF-RHF Final Energy:  -551.67854379326059
    Total Energy =                       -551.6785437932605873
  @DF-RHF Final Energy:  -551.67865453159970
    Total Energy =                       -551.6786545315997046
  @DF-RHF Final Energy:  -551.67879713270884
    Total Energy =                       -551.6787971327088371
  @DF-RHF Final Energy:  -551.67887764386091
    Total Energy =                       -551.6788776438609148
  @DF-RHF Final Energy:  -551.67793441470917
    Total Energy =                       -551.6779344147091706
  @DF-RHF Final Energy:  -551.67854188793967
    Total Energy =                       -551.6785418879396730
  @DF-RHF Final Energy:  -551.67858792068057
    Total Energy =                       -551.6785879206805703
  @DF-RHF Final Energy:  -551.67860098262167
    Total Energy =                       -551.6786009826216741
  @DF-RHF Final Energy:  -551.67854301571481
    Total Energy =                       -551.6785430157148085
  @DF-RHF Final Energy:  -551.67780752391968
    Total Energy =                       -551.6778075239196824
  @DF-RHF Final Energy:  -551.67860381983371
    Total Energy =                       -551.6786038198337110
  @DF-RHF Final Energy:  -551.67859937233311
    Total Energy =                       -551.6785993723331103
  @DF-RHF Final Energy:  -551.67854685200632
    Total Energy =                       -551.6785468520063205
  @DF-RHF Final Energy:  -551.67858948160404
    Total Energy =                       -551.6785894816040354
  @DF-RHF Final Energy:  -551.67857221381007
    Total Energy =                       -551.6785722138100709
  @DF-RHF Final Energy:  -551.67868717570479
    Total Energy =                       -551.6786871757047948
  @DF-RHF Final Energy:  -551.67727440456451
    Total Energy =                       -551.6772744045645140
  @DF-RHF Final Energy:  -551.67839564694157
    Total Energy =                       -551.6783956469415671
  @DF-RHF Final Energy:  -551.67857164578254
    Total Energy =                       -551.6785716457825401
  Charge       = 1
  Multiplicity = 1
  Basis Set: AUG-CC-PVTZ
    Blend: AUG-CC-PVTZ
  Basis Set: (AUG-CC-PVTZ AUX)
    Blend: AUG-CC-PVTZ-JKFIT

    Orbital Energies (a.u.)
    -----------------------

    Doubly Occupied:

       1A    -20.700767     2A    -15.835930     3A    -11.484269
       4A    -11.484222     5A    -11.449661     6A    -11.426071
       7A    -11.414100     8A    -11.413397     9A    -11.373121
      10A    -11.371281    11A    -11.368780    12A    -11.351403
      13A    -11.344793    14A     -1.523380    15A     -1.512867
      16A     -1.318299    17A     -1.265094    18A     -1.242084
      19A     -1.154510    20A     -1.150141    21A     -1.065962
      22A     -1.057760    23A     -0.976000    24A     -0.965501
      25A     -0.949605    26A     -0.872339    27A     -0.860479
      28A     -0.854566    29A     -0.820128    30A     -0.802887
      31A     -0.788482    32A     -0.774369    33A     -0.753399
      34A     -0.730273    35A     -0.718658    36A     -0.707740
      37A     -0.704561    38A     -0.686750    39A     -0.655121
      40A     -0.624336    41A     -0.614074    42A     -0.571855
      43A     -0.541378    44A     -0.468975    45A     -0.435387

  @DF-RHF Final Energy:  -551.67858117244009

   => Energetics <=

    Nuclear Repulsion Energy =            713.5127928832489488
    One-Electron Energy =               -2150.0132417376134981
    Two-Electron Energy =                 884.8218676819244592
    DFT Exchange-Correlation Energy =       0.0000000000000000
    Empirical Dispersion Energy =           0.0000000000000000
    PCM Polarization Energy =               0.0000000000000000
    EFP Energy =                            0.0000000000000000
    Total Energy =                       -551.6785811724400901
  Basis Set: (AUG-CC-PVTZ AUX)
    Blend: AUG-CC-PVTZ-RI
    Molecular point group: c1
  Basis Set: AUG-CC-PVTZ
    Blend: AUG-CC-PVTZ
  Basis Set: (AUG-CC-PVTZ AUX)
    Blend: AUG-CC-PVTZ-JKFIT
  Basis Set: (AUG-CC-PVTZ AUX)
    Blend: AUG-CC-PVTZ-JKFIT
	 Reference Energy          =    -551.6785811724400901 [Eh]
	 Singles Energy            =      -0.0000000000000003 [Eh]
	 Same-Spin Energy          =      -0.5957650051986071 [Eh]
	 Opposite-Spin Energy      =      -1.8232747543429184 [Eh]
	 Correlation Energy        =      -2.4190397595415258 [Eh]
	 Total Energy              =    -554.0976209319816235 [Eh]

	 ================> DF-SCS-MP2 Energies <==================
	-----------------------------------------------------------
	 SCS Same-Spin Scale       =       0.3333333333333333 [-]
	 SCS Opposite-Spin Scale   =       1.2000000000000000 [-]
	 SCS Same-Spin Energy      =      -0.1985883350662024 [Eh]
	 SCS Opposite-Spin Energy  =      -2.1879297052115021 [Eh]
	 SCS Correlation Energy    =      -2.3865180402777049 [Eh]
	 SCS Total Energy          =    -554.0650992127177688 [Eh]
	-----------------------------------------------------------

  -Total Gradient:
     Atom            X                  Y                   Z
    ------   -----------------  -----------------  -----------------
       1        0.002786730674     0.005569046631     0.000332437515
       2       -0.000128936407     0.000146100261     0.000010721465
       3       -0.000093091153     0.000056937279     0.000200007450
       4        0.000089643941     0.000026995216     0.000050639959
       5       -0.000735368861     0.004276758536    -0.004619781421
       6       -0.000064503280     0.000161442514    -0.000025216213
       7       -0.000029373494    -0.000011147583    -0.000025457921
       8       -0.000063498148    -0.000007204961    -0.000010023086
       9       -0.004653624768    -0.006299103116    -0.002676374396
      10        0.002766968821    -0.003940286718     0.006917887815
      11        0.000146586298     0.000039233616    -0.000307968068
      12        0.000061691877     0.000005322177     0.000048905173
      13       -0.000120438042     0.000004921120     0.000151862939
      14        0.000018130700    -0.000005096886     0.000043195513
      15       -0.000017662845     0.000014447741    -0.000025596628
      16        0.000029347093     0.000000843575     0.000022298852
      17       -0.000026080735    -0.000016510351    -0.000034768481
      18       -0.000006656358    -0.000049063414    -0.000040760962
      19        0.000038451738    -0.000002824001     0.000033615782
      20        0.000004460411     0.000004946852     0.000001447257
      21        0.000001555694     0.000033275438     0.000034513967
      22        0.000016658430     0.000007099625     0.000004416513
      23       -0.000020991596    -0.000016133546    -0.000086003027

  **** Optimization is complete! (in 31 steps) ****
    Final optimized geometry and variables:
    Molecular point group: c1

    Geometry (in Angstrom), charge = 1, multiplicity = 1:

    C           -1.322439281931     0.580751530190    -0.533768413574
    C           -0.269953316890     0.128135023152     1.584362168555
    C           -2.360807991139     1.216100385033     0.115670851164
    C           -1.322615712513     0.740076638209     2.238464194165
    C            2.157863846423    -0.062141952411    -0.283179789137
    C            0.697715235956    -1.508786245476    -1.506644380032
    C            3.220526934144    -0.553704157820    -1.002211978540
    C            1.779188466792    -1.976655873187    -2.213182558198
    C           -0.275751971916     0.010608854939     0.194790945107
    C            0.866310267071    -0.549845211531    -0.503521790159
    C           -2.372409434723     1.287990981596     1.505670813252
    N            3.000742012363    -1.491517884106    -1.937986339400
    O           -3.425727584523     1.907236804760     2.071244971042
    H           -1.314521232150     0.542415438831    -1.613478216629
    H            0.541333733197    -0.292823152327     2.160571170360
    H           -3.168743720050     1.670664448470    -0.435501021751
    H           -1.328693636502     0.795544626363     3.317319910156
    H            2.330764341884     0.709359967901     0.449664971575
    H           -0.281873964912    -1.904544371504    -1.721691941104
    H            4.236437801897    -0.217544122570    -0.878264904154
    H            1.714762380111    -2.725525165654    -2.984822299817
    H            3.790439006468    -1.842937693979    -2.464787743364
    H           -3.341691072927     1.905417638850     3.030890303616

*** Psi4 exiting successfully. Buy a developer a beer!
