                               Psi4 1.1 release

  ==> Input File <==

--------------------------------------------------------------------------

memory 5 Gb

molecule phepyrF {
  symmetry C1
  0 1
  C      1.885   -1.036   -0.112
  C      0.807   -0.463   0.561
  C      2.921   -1.631   0.608
  C      0.764   -0.484   1.955
  C      4.250   -3.616   2.559
  C      4.701   -1.519   3.647
  C      5.291   -4.159   3.293
  C      5.722   -2.157   4.333
  C      2.878   -1.652   2.002
  C      3.955   -2.270   2.745
  C      1.800   -1.079   2.676
  N      6.038   -3.462   4.178
  F      1.744   -1.089   4.016
  H      1.918   -1.020   -1.198
  H      0.000   -0.000   -0.000
  H      3.755   -2.073   0.068
  H      -0.076   -0.038   2.480
  H      3.691   -4.234   1.863
  H      4.500   -0.467   3.819
  H      5.562   -5.205   3.183
  H      6.333   -1.616   5.048
  units Angstrom
}

dih_string = "3 9 10 5 300"
set optking { opt_coordinates = cartesian
              fixed_dihedral = $dih_string
              dynamic_level = 1
              geom_maxiter = 250
              print_trajectory_xyz_file = True }

optimize('MP2/aug-cc-PVTZ')
--------------------------------------------------------------------------

    Molecular point group: c1
  Charge       = 0
  Multiplicity = 1
  Basis Set: AUG-CC-PVTZ
    Blend: AUG-CC-PVTZ
  Basis Set: (AUG-CC-PVTZ AUX)
    Blend: AUG-CC-PVTZ-JKFIT
  @DF-RHF Final Energy:  -575.28375277873522
    Total Energy =                       -575.2837527787352201
  Basis Set: (AUG-CC-PVTZ AUX)
    Blend: AUG-CC-PVTZ-RI
    Molecular point group: c1
  Basis Set: AUG-CC-PVTZ
    Blend: AUG-CC-PVTZ
  Basis Set: (AUG-CC-PVTZ AUX)
    Blend: AUG-CC-PVTZ-JKFIT
  Basis Set: (AUG-CC-PVTZ AUX)
    Blend: AUG-CC-PVTZ-JKFIT
	 Reference Energy          =    -575.2837527787352201 [Eh]
	 Singles Energy            =      -0.0000000000000001 [Eh]
	 Same-Spin Energy          =      -0.6078497805737618 [Eh]
	 Opposite-Spin Energy      =      -1.8320276922884682 [Eh]
	 Correlation Energy        =      -2.4398774728622299 [Eh]
	 Total Energy              =    -577.7236302515974558 [Eh]
	 SCS Total Energy          =    -577.6848026030060055 [Eh]
  @DF-RHF Final Energy:  -575.28375280505145
    Total Energy =                       -575.2837528050514493
  @DF-RHF Final Energy:  -575.28375280063653
    Total Energy =                       -575.2837528006365346
  @DF-RHF Final Energy:  -575.28744336852378
    Total Energy =                       -575.2874433685237818
  @DF-RHF Final Energy:  -575.28964130728491
    Total Energy =                       -575.2896413072849100
  @DF-RHF Final Energy:  -575.29023158914538
    Total Energy =                       -575.2902315891453782
  @DF-RHF Final Energy:  -575.29024303552353
    Total Energy =                       -575.2902430355235310
  @DF-RHF Final Energy:  -575.29014877081113
    Total Energy =                       -575.2901487708111290
  @DF-RHF Final Energy:  -575.29016281996655
    Total Energy =                       -575.2901628199665538
  @DF-RHF Final Energy:  -575.29018370312542
    Total Energy =                       -575.2901837031254217
  @DF-RHF Final Energy:  -575.29017479158779
    Total Energy =                       -575.2901747915877877
  @DF-RHF Final Energy:  -575.29016283109763
    Total Energy =                       -575.2901628310976321
  @DF-RHF Final Energy:  -575.29015907154076
    Total Energy =                       -575.2901590715407565
  @DF-RHF Final Energy:  -575.29016617916500
    Total Energy =                       -575.2901661791649985
  @DF-RHF Final Energy:  -575.29015544986862
    Total Energy =                       -575.2901554498686210
  @DF-RHF Final Energy:  -575.29016603825221
    Total Energy =                       -575.2901660382522095
  @DF-RHF Final Energy:  -575.29017881663697
    Total Energy =                       -575.2901788166369670
  @DF-RHF Final Energy:  -575.29017644829003
    Total Energy =                       -575.2901764482900262
  @DF-RHF Final Energy:  -575.29014789765495
    Total Energy =                       -575.2901478976549470
  @DF-RHF Final Energy:  -575.29028379172235
    Total Energy =                       -575.2902837917223451
  Charge       = 0
  Multiplicity = 1
  Basis Set: AUG-CC-PVTZ
    Blend: AUG-CC-PVTZ
  Basis Set: (AUG-CC-PVTZ AUX)
    Blend: AUG-CC-PVTZ-JKFIT

    Orbital Energies (a.u.)
    -----------------------

    Doubly Occupied:

       1A    -26.316677     2A    -15.564394     3A    -11.337301
       4A    -11.273595     5A    -11.272731     6A    -11.268593
       7A    -11.261288     8A    -11.256515     9A    -11.256329
      10A    -11.250991    11A    -11.247271    12A    -11.240388
      13A    -11.239054    14A     -1.635595    15A     -1.260706
      16A     -1.186208    17A     -1.115419    18A     -1.038950
      19A     -1.035137    20A     -1.028976    21A     -0.892310
      22A     -0.869816    23A     -0.851083    24A     -0.826136
      25A     -0.755977    26A     -0.723284    27A     -0.713012
      28A     -0.703587    29A     -0.671799    30A     -0.666791
      31A     -0.652662    32A     -0.626311    33A     -0.612627
      34A     -0.598707    35A     -0.592260    36A     -0.550268
      37A     -0.537958    38A     -0.527584    39A     -0.518990
      40A     -0.510664    41A     -0.419393    42A     -0.397314
      43A     -0.355387    44A     -0.348788    45A     -0.340989

  @DF-RHF Final Energy:  -575.29017645946692

   => Energetics <=

    Nuclear Repulsion Energy =            715.7470959647240534
    One-Electron Energy =               -2203.3749165968383750
    Two-Electron Energy =                 912.3376441726475150
    DFT Exchange-Correlation Energy =       0.0000000000000000
    Empirical Dispersion Energy =           0.0000000000000000
    PCM Polarization Energy =               0.0000000000000000
    EFP Energy =                            0.0000000000000000
    Total Energy =                       -575.2901764594669203
  Basis Set: (AUG-CC-PVTZ AUX)
    Blend: AUG-CC-PVTZ-RI
    Molecular point group: c1
  Basis Set: AUG-CC-PVTZ
    Blend: AUG-CC-PVTZ
  Basis Set: (AUG-CC-PVTZ AUX)
    Blend: AUG-CC-PVTZ-JKFIT
  Basis Set: (AUG-CC-PVTZ AUX)
    Blend: AUG-CC-PVTZ-JKFIT
	 Reference Energy          =    -575.2901764594669203 [Eh]
	 Singles Energy            =      -0.0000000000000003 [Eh]
	 Same-Spin Energy          =      -0.6070045984195189 [Eh]
	 Opposite-Spin Energy      =      -1.8296186190233834 [Eh]
	 Correlation Energy        =      -2.4366232174429028 [Eh]
	 Total Energy              =    -577.7267996769098772 [Eh]

	 ================> DF-SCS-MP2 Energies <==================
	-----------------------------------------------------------
	 SCS Same-Spin Scale       =       0.3333333333333333 [-]
	 SCS Opposite-Spin Scale   =       1.2000000000000000 [-]
	 SCS Same-Spin Energy      =      -0.2023348661398396 [Eh]
	 SCS Opposite-Spin Energy  =      -2.1955423428280598 [Eh]
	 SCS Correlation Energy    =      -2.3978772089678997 [Eh]
	 SCS Total Energy          =    -577.6880536684348044 [Eh]
	-----------------------------------------------------------

  -Total Gradient:
     Atom            X                  Y                   Z
    ------   -----------------  -----------------  -----------------
       1       -0.000011961099     0.000010344414     0.000015796228
       2        0.000017946860    -0.000013574126    -0.000028905620
       3        0.001168567479     0.002163508508     0.000016681547
       4        0.000013081705    -0.000018863428     0.000045795679
       5       -0.001570412812    -0.000682083151     0.001769156899
       6       -0.000024746955    -0.000030577672     0.000000622621
       7       -0.000101957468    -0.000028734979     0.000108887254
       8        0.000030825203     0.000032436128    -0.000055331466
       9       -0.002555586758    -0.003581411752     0.000842112493
      10        0.002992771246     0.002110570277    -0.002629048153
      11        0.000003579504     0.000043277267    -0.000017928719
      12        0.000021533430    -0.000015257196    -0.000010400135
      13       -0.000011810882    -0.000007047110    -0.000011872103
      14       -0.000002554760     0.000002628351    -0.000002479092
      15       -0.000002021834     0.000001986621     0.000004216225
      16        0.000006798051     0.000001881582     0.000002505567
      17       -0.000008805292     0.000005473262    -0.000009741099
      18        0.000009099165     0.000007491689    -0.000008498467
      19       -0.000008016415    -0.000000528097     0.000001682453
      20        0.000047282618     0.000002337097    -0.000048684935
      21       -0.000013610988    -0.000003857685     0.000015432833

  **** Optimization is complete! (in 5 steps) ****
    Final optimized geometry and variables:
    Molecular point group: c1

    Geometry (in Angstrom), charge = 0, multiplicity = 1:

    C           -1.405738391799     0.832654339036    -2.663908109885
    C           -2.466283671748     1.422112379794    -1.989705832729
    C           -0.379983607219     0.235170406894    -1.948035113584
    C           -2.498050492368     1.415813575054    -0.602783093721
    C            1.035088069866    -1.739567453607     0.027469719736
    C            1.444834151534     0.326245355971     1.126184595381
    C            2.083515645946    -2.279241693382     0.756760978069
    C            2.475157400116    -0.300347171339     1.808866484531
    C           -0.392608866382     0.206223361881    -0.554479055416
    C            0.706962201279    -0.400009072280     0.199117426601
    C           -1.462776207229     0.816807373924     0.084745732900
    N            2.804731869654    -1.583129843355     1.637761938734
    F           -1.504072640718     0.810857058174     1.429883567426
    H           -1.374649358941     0.845219878103    -3.741819990843
    H           -3.268659447251     1.890193797932    -2.538216324465
    H            0.455402269094    -0.215173447299    -2.463267163733
    H           -3.308079960709     1.863415526860    -0.050306539503
    H            0.477392570146    -2.352790591677    -0.664489304875
    H            1.222468833005     1.366457360878     1.307577950662
    H            2.353591582120    -3.318499602884     0.632217264497
    H            3.064209696789     0.251946977116     2.527347513448

*** Psi4 exiting successfully. Buy a developer a beer!
