                               Psi4 1.1 release

  ==> Input File <==

--------------------------------------------------------------------------

memory 5 Gb

molecule phepyrFOH_cation {
  symmetry C1
  1 1
  C      1.885   -1.036   -0.112
  C      0.807   -0.463   0.561
  C      4.906   -3.081   0.575
  C      4.245   -1.940   -1.441
  C      1.800   -1.079   2.676
  C      5.969   -3.636   -0.125
  C      5.325   -2.523   -2.089
  C      2.921   -1.631   0.608
  C      4.038   -2.225   -0.095
  C      0.764   -0.484   1.955
  C      2.878   -1.652   2.002
  N      6.145   -3.345   -1.420
  O      -0.289   0.076   2.612
  F      3.866   -2.220   2.709
  H      1.904   -1.012   -1.199
  H      0.002   -0.002   -0.006
  H      4.768   -3.322   1.625
  H      3.584   -1.274   -1.988
  H      1.772   -1.099   3.762
  H      6.691   -4.311   0.313
  H      5.562   -2.359   -3.131
  H      6.933   -3.762   -1.915
  H      -0.175   -0.018   3.571
  units Angstrom
}

dih_string = "1 8 9 3 195"
set optking fixed_dihedral = $dih_string

optimize('MP2/aug-cc-PVTZ')
--------------------------------------------------------------------------

    Molecular point group: c1
  Charge       = 1
  Multiplicity = 1
  Basis Set: AUG-CC-PVTZ
    Blend: AUG-CC-PVTZ
  Basis Set: (AUG-CC-PVTZ AUX)
    Blend: AUG-CC-PVTZ-JKFIT
  @DF-RHF Final Energy:  -650.55314849574359
    Total Energy =                       -650.5531484957434714
  Basis Set: (AUG-CC-PVTZ AUX)
    Blend: AUG-CC-PVTZ-RI
    Molecular point group: c1
  Basis Set: AUG-CC-PVTZ
    Blend: AUG-CC-PVTZ
  Basis Set: (AUG-CC-PVTZ AUX)
    Blend: AUG-CC-PVTZ-JKFIT
  Basis Set: (AUG-CC-PVTZ AUX)
    Blend: AUG-CC-PVTZ-JKFIT
	 Reference Energy          =    -650.5531484957435850 [Eh]
	 Singles Energy            =      -0.0000000000000001 [Eh]
	 Same-Spin Energy          =      -0.6709249656115830 [Eh]
	 Opposite-Spin Energy      =      -2.0164481890205908 [Eh]
	 Correlation Energy        =      -2.6873731546321737 [Eh]
	 Total Energy              =    -653.2405216503757401 [Eh]
	 SCS Total Energy          =    -653.1965279777721207 [Eh]
  @DF-RHF Final Energy:  -650.56148766591082
    Total Energy =                       -650.5614876659108177
  @DF-RHF Final Energy:  -650.56590070857419
    Total Energy =                       -650.5659007085741905
  @DF-RHF Final Energy:  -650.56780027433251
    Total Energy =                       -650.5678002743325123
  @DF-RHF Final Energy:  -650.56857624704480
    Total Energy =                       -650.5685762470448026
  @DF-RHF Final Energy:  -650.56894437459835
    Total Energy =                       -650.5689443745984590
  @DF-RHF Final Energy:  -650.56905911402191
    Total Energy =                       -650.5690591140219112
  Charge       = 1
  Multiplicity = 1
  Basis Set: AUG-CC-PVTZ
    Blend: AUG-CC-PVTZ
  Basis Set: (AUG-CC-PVTZ AUX)
    Blend: AUG-CC-PVTZ-JKFIT

    Orbital Energies (a.u.)
    -----------------------

    Doubly Occupied:

       1A    -26.449575     2A    -20.721303     3A    -15.825889
       4A    -11.479197     5A    -11.477377     6A    -11.476045
       7A    -11.455118     8A    -11.452136     9A    -11.409657
      10A    -11.404577    11A    -11.389528    12A    -11.384987
      13A    -11.363720    14A    -11.354979    15A     -1.770330
      16A     -1.545220    17A     -1.505206    18A     -1.323029
      19A     -1.276091    20A     -1.235127    21A     -1.171866
      22A     -1.163374    23A     -1.065780    24A     -1.061454
      25A     -0.999414    26A     -0.976378    27A     -0.958463
      28A     -0.905031    29A     -0.873980    30A     -0.866422
      31A     -0.853293    32A     -0.835569    33A     -0.822173
      34A     -0.805970    35A     -0.786325    36A     -0.772022
      37A     -0.770506    38A     -0.755078    39A     -0.728101
      40A     -0.723231    41A     -0.709411    42A     -0.691377
      43A     -0.667528    44A     -0.647639    45A     -0.643860
      46A     -0.574112    47A     -0.536345    48A     -0.481554
      49A     -0.446841

  @DF-RHF Final Energy:  -650.56908283668656

   => Energetics <=

    Nuclear Repulsion Energy =            830.3592795133471327
    One-Electron Energy =               -2520.6723443801865869
    Two-Electron Energy =                1039.7439820301526652
    DFT Exchange-Correlation Energy =       0.0000000000000000
    Empirical Dispersion Energy =           0.0000000000000000
    PCM Polarization Energy =               0.0000000000000000
    EFP Energy =                            0.0000000000000000
    Total Energy =                       -650.5690828366866754
  Basis Set: (AUG-CC-PVTZ AUX)
    Blend: AUG-CC-PVTZ-RI
    Molecular point group: c1
  Basis Set: AUG-CC-PVTZ
    Blend: AUG-CC-PVTZ
  Basis Set: (AUG-CC-PVTZ AUX)
    Blend: AUG-CC-PVTZ-JKFIT
  Basis Set: (AUG-CC-PVTZ AUX)
    Blend: AUG-CC-PVTZ-JKFIT
	 Reference Energy          =    -650.5690828366865617 [Eh]
	 Singles Energy            =      -0.0000000000000002 [Eh]
	 Same-Spin Energy          =      -0.6687548749206580 [Eh]
	 Opposite-Spin Energy      =      -2.0125746618125357 [Eh]
	 Correlation Energy        =      -2.6813295367331937 [Eh]
	 Total Energy              =    -653.2504123734197492 [Eh]

	 ================> DF-SCS-MP2 Energies <==================
	-----------------------------------------------------------
	 SCS Same-Spin Scale       =       0.3333333333333333 [-]
	 SCS Opposite-Spin Scale   =       1.2000000000000000 [-]
	 SCS Same-Spin Energy      =      -0.2229182916402193 [Eh]
	 SCS Opposite-Spin Energy  =      -2.4150895941750430 [Eh]
	 SCS Correlation Energy    =      -2.6380078858152625 [Eh]
	 SCS Total Energy          =    -653.2070907225017891 [Eh]
	-----------------------------------------------------------

  -Total Gradient:
     Atom            X                  Y                   Z
    ------   -----------------  -----------------  -----------------
       1        0.001055653236     0.001885357176     0.000075746379
       2        0.000029570978    -0.000037947002    -0.000008067285
       3        0.001207134507     0.001726097313     0.000615366966
       4       -0.000019563899     0.000000787346     0.000004580088
       5       -0.000029932294     0.000019661549     0.000050163632
       6        0.000022861849    -0.000003530475    -0.000074527237
       7       -0.000026102994    -0.000005011837    -0.000011738232
       8       -0.000866562370    -0.001917130282     0.000171544102
       9       -0.001392331931    -0.001655481346    -0.000778344876
      10        0.000003611006     0.000002672384    -0.000008003090
      11       -0.000065678691     0.000032059944    -0.000107649606
      12        0.000019178999    -0.000020379360     0.000049812835
      13       -0.000018123377     0.000006486982    -0.000004170367
      14        0.000082688790    -0.000037595299     0.000039275029
      15        0.000009325909     0.000002507167    -0.000019300413
      16       -0.000017716303     0.000007609999     0.000013387406
      17        0.000004038157    -0.000014979250    -0.000006628110
      18       -0.000020491927     0.000010815446    -0.000011469124
      19        0.000018346069    -0.000009089689    -0.000004514107
      20       -0.000007958937    -0.000003506656     0.000016590142
      21       -0.000003050618     0.000004701092    -0.000000280097
      22        0.000010036024     0.000007132450    -0.000002807759
      23        0.000005067803    -0.000001237655     0.000001033725

  **** Optimization is complete! (in 8 steps) ****
    Final optimized geometry and variables:
    Molecular point group: c1

    Geometry (in Angstrom), charge = 1, multiplicity = 1:

    C           -1.376348454190     0.738915672635    -0.676475080969
    C           -2.425019931772     1.301035463701     0.008694076684
    C            1.741845550728    -1.334633794867    -0.242894107530
    C            0.996298522794    -0.080992020166    -2.128230981710
    C           -1.383164030863     0.682324758297     2.084575090273
    C            2.766653666145    -1.832257562003    -1.008058063433
    C            2.033302215776    -0.593594774689    -2.863179804876
    C           -0.297207650206     0.114366198026    -0.026812710728
    C            0.802883400334    -0.440250417037    -0.783999655599
    C           -2.435665721881     1.278267132572     1.403048132464
    C           -0.353332337556     0.118898146411     1.369440564200
    N            2.889460298127    -1.454689806107    -2.289555920639
    O           -3.484482200170     1.845656403628     2.013625659958
    F            0.655080065221    -0.409054625959     2.084298143133
    H           -1.421055301093     0.746110082947    -1.753208461431
    H           -3.250578596289     1.756894891789    -0.513299638681
    H            1.669458774100    -1.671418616314     0.774035119018
    H            0.351641448275     0.630292955284    -2.614357650966
    H           -1.342671050873     0.653086673714     3.162447959193
    H            3.496927356224    -2.529279709044    -0.632055427577
    H            2.214724328539    -0.335449162568    -3.893089518792
    H            3.653409159597    -1.825918908976    -2.839164712849
    H           -3.403011469213     1.777380035916     2.971877499713

*** Psi4 exiting successfully. Buy a developer a beer!
