                               Psi4 1.1 release

  ==> Input File <==

--------------------------------------------------------------------------

memory 5 Gb

molecule phepyrOH_neutral {
  symmetry C1
  0 1
  C      1.885   -1.036   -0.112
  C      2.878   -1.652   2.002
  C      0.807   -0.463   0.561
  C      1.800   -1.079   2.676
  C      3.862   -2.773   -1.356
  C      5.298   -2.250   0.501
  C      4.965   -3.329   -1.983
  C      6.337   -2.829   -0.209
  C      2.921   -1.631   0.608
  C      4.040   -2.225   -0.090
  C      0.764   -0.484   1.955
  N      6.202   -3.372   -1.440
  O      -0.288   0.076   2.612
  H      1.904   -1.012   -1.199
  H      3.678   -2.112   2.578
  H      0.003   -0.001   -0.006
  H      1.772   -1.098   3.762
  H      2.895   -2.772   -1.850
  H      5.475   -1.833   1.487
  H      4.879   -3.768   -2.972
  H      7.337   -2.875   0.208
  H      -0.877   -0.615   2.956
  units Angstrom
}

dih_string = "3 11 13 22 105"
set optking fixed_dihedral = $dih_string

optimize('MP2/aug-cc-PVTZ')
--------------------------------------------------------------------------

    Molecular point group: c1
  Charge       = 0
  Multiplicity = 1
  Basis Set: AUG-CC-PVTZ
    Blend: AUG-CC-PVTZ
  Basis Set: (AUG-CC-PVTZ AUX)
    Blend: AUG-CC-PVTZ-JKFIT
  @DF-RHF Final Energy:  -551.28180571376913
    Total Energy =                       -551.2818057137691312
  Basis Set: (AUG-CC-PVTZ AUX)
    Blend: AUG-CC-PVTZ-RI
    Molecular point group: c1
  Basis Set: AUG-CC-PVTZ
    Blend: AUG-CC-PVTZ
  Basis Set: (AUG-CC-PVTZ AUX)
    Blend: AUG-CC-PVTZ-JKFIT
  Basis Set: (AUG-CC-PVTZ AUX)
    Blend: AUG-CC-PVTZ-JKFIT
	 Reference Energy          =    -551.2818057137691312 [Eh]
	 Singles Energy            =      -0.0000000000000001 [Eh]
	 Same-Spin Energy          =      -0.6046966482308769 [Eh]
	 Opposite-Spin Energy      =      -1.8303533437049035 [Eh]
	 Correlation Energy        =      -2.4350499919357804 [Eh]
	 Total Energy              =    -553.7168557057049156 [Eh]
	 SCS Total Energy          =    -553.6797952756253380 [Eh]
  @DF-RHF Final Energy:  -551.28763247158327
    Total Energy =                       -551.2876324715832652
  @DF-RHF Final Energy:  -551.28881648237302
    Total Energy =                       -551.2888164823730222
  @DF-RHF Final Energy:  -551.28882086280896
    Total Energy =                       -551.2888208628089615
  @DF-RHF Final Energy:  -551.28893165079489
    Total Energy =                       -551.2889316507948934
  @DF-RHF Final Energy:  -551.28899595611085
    Total Energy =                       -551.2889959561108526
  Charge       = 0
  Multiplicity = 1
  Basis Set: AUG-CC-PVTZ
    Blend: AUG-CC-PVTZ
  Basis Set: (AUG-CC-PVTZ AUX)
    Blend: AUG-CC-PVTZ-JKFIT

    Orbital Energies (a.u.)
    -----------------------

    Doubly Occupied:

       1A    -20.588130     2A    -15.561862     3A    -11.304918
       4A    -11.272744     5A    -11.272695     6A    -11.266347
       7A    -11.252162     8A    -11.250448     9A    -11.249798
      10A    -11.242865    11A    -11.241416    12A    -11.237231
      13A    -11.237151    14A     -1.402023    15A     -1.259208
      16A     -1.176072    17A     -1.106413    18A     -1.039461
      19A     -1.030705    20A     -1.012911    21A     -0.879699
      22A     -0.872220    23A     -0.840791    24A     -0.812374
      25A     -0.745271    26A     -0.724170    27A     -0.683486
      28A     -0.662884    29A     -0.651705    30A     -0.644169
      31A     -0.635076    32A     -0.606532    33A     -0.597081
      34A     -0.594153    35A     -0.551704    36A     -0.540255
      37A     -0.533530    38A     -0.519651    39A     -0.504919
      40A     -0.483511    41A     -0.418469    42A     -0.401934
      43A     -0.354810    44A     -0.349218    45A     -0.320284

  @DF-RHF Final Energy:  -551.28900552469190

   => Energetics <=

    Nuclear Repulsion Energy =            697.3294533955096313
    One-Electron Energy =               -2131.3720095643343484
    Two-Electron Energy =                 882.7535506441329289
    DFT Exchange-Correlation Energy =       0.0000000000000000
    Empirical Dispersion Energy =           0.0000000000000000
    PCM Polarization Energy =               0.0000000000000000
    EFP Energy =                            0.0000000000000000
    Total Energy =                       -551.2890055246919019
  Basis Set: (AUG-CC-PVTZ AUX)
    Blend: AUG-CC-PVTZ-RI
    Molecular point group: c1
  Basis Set: AUG-CC-PVTZ
    Blend: AUG-CC-PVTZ
  Basis Set: (AUG-CC-PVTZ AUX)
    Blend: AUG-CC-PVTZ-JKFIT
  Basis Set: (AUG-CC-PVTZ AUX)
    Blend: AUG-CC-PVTZ-JKFIT
	 Reference Energy          =    -551.2890055246919019 [Eh]
	 Singles Energy            =      -0.0000000000000002 [Eh]
	 Same-Spin Energy          =      -0.6035376632955016 [Eh]
	 Opposite-Spin Energy      =      -1.8279795526049769 [Eh]
	 Correlation Energy        =      -2.4315172159004783 [Eh]
	 Total Energy              =    -553.7205227405924006 [Eh]

	 ================> DF-SCS-MP2 Energies <==================
	-----------------------------------------------------------
	 SCS Same-Spin Scale       =       0.3333333333333333 [-]
	 SCS Opposite-Spin Scale   =       1.2000000000000000 [-]
	 SCS Same-Spin Energy      =      -0.2011792210985005 [Eh]
	 SCS Opposite-Spin Energy  =      -2.1935754631259723 [Eh]
	 SCS Correlation Energy    =      -2.3947546842244729 [Eh]
	 SCS Total Energy          =    -553.6837602089163966 [Eh]
	-----------------------------------------------------------

  -Total Gradient:
     Atom            X                  Y                   Z
    ------   -----------------  -----------------  -----------------
       1       -0.000016396583    -0.000003519666    -0.000012348586
       2       -0.000000742569    -0.000010210977     0.000008860424
       3       -0.000545066019    -0.000867251565    -0.000072615989
       4       -0.000010609437     0.000006359905     0.000005224004
       5       -0.000003833249    -0.000015175856     0.000005834244
       6        0.000000281581     0.000007602568    -0.000001645705
       7       -0.000005919465     0.000087416532    -0.000037783600
       8       -0.000027409117    -0.000078598794     0.000062743434
       9        0.000028000429    -0.000005424963    -0.000009794246
      10       -0.000018304236     0.000022800720     0.000005290551
      11        0.000671292519     0.001330778024    -0.000148482167
      12        0.000023510134    -0.000007340557    -0.000015483513
      13        0.000559810939    -0.000579959584     0.001389294308
      14        0.000003631018    -0.000001377291    -0.000005662012
      15        0.000004627630    -0.000002256264     0.000001795934
      16       -0.000002262884     0.000008664431    -0.000003760759
      17        0.000002062545    -0.000003469396     0.000005198122
      18       -0.000003008292    -0.000012947260    -0.000004245133
      19        0.000011956189     0.000010286745    -0.000001250252
      20       -0.000007201990    -0.000033121551     0.000010372219
      21        0.000011777452     0.000033228968    -0.000014759178
      22       -0.000676196603     0.000113515836    -0.001166782090

  **** Optimization is complete! (in 7 steps) ****
    Final optimized geometry and variables:
    Molecular point group: c1

    Geometry (in Angstrom), charge = 0, multiplicity = 1:

    C           -1.239702013507     0.771573436108    -0.556484261161
    C           -0.311960326060     0.050460597287     1.530850961361
    C           -2.314708822099     1.334667275803     0.112176611763
    C           -1.381704925652     0.616517410199     2.205258825113
    C            0.751790785545    -1.089188044032    -1.807770025263
    C            2.193508927067    -0.460085464727    -0.035470193645
    C            1.853029837994    -1.640311932070    -2.442813856513
    C            3.235124797187    -1.038375344906    -0.742949072694
    C           -0.224296828745     0.118783825184     0.141051927881
    C            0.907418269885    -0.476963475467    -0.567466411002
    C           -2.388188524683     1.254176384205     1.494362237758
    N            3.086746966037    -1.625573464136    -1.932749556141
    O           -3.438582519822     1.860560235666     2.152722651267
    H           -1.175389284500     0.861478487288    -1.630708067299
    H            0.453126194165    -0.469155060539     2.088400637154
    H           -3.095796718854     1.851206137165    -0.423790544022
    H           -1.446193101242     0.567785913713     3.281621120330
    H           -0.223401644230    -1.159071790406    -2.265613209404
    H            2.389093289888     0.021971594354     0.910489576483
    H            1.738690841929    -2.123469438308    -3.403185107003
    H            4.237980729211    -1.023026703670    -0.339413280870
    H           -4.056734043599     1.183011793599     2.439911390663

*** Psi4 exiting successfully. Buy a developer a beer!
