                              Psi4 1.0.0 Driver

  ==> Input File <==

--------------------------------------------------------------------------

memory 1000 mb

molecule butane {
  symmetry C1
  0 1
  H      1.604   0.760   -8.260
  H      1.745   2.388   -8.880
  H      2.043   1.024   -9.930
  C      2.142   1.395   -8.932
  H      4.169   2.051   -9.210
  H      3.731   1.788   -7.539
  C      3.631   1.416   -8.537
  H      5.267   0.025   -8.509
  H      3.789   -0.604   -7.823
  C      4.203   -0.012   -8.612
  H      4.237   -1.632   -10.021
  H      4.253   -0.049   -10.759
  H      2.775   -0.678   -10.073
  C      3.840   -0.641   -9.970
  units Angstrom
}

dih_string = "4 7 10 14 50"
set optking fixed_dihedral = $dih_string

optimize('MP2/6-31G(d)')
--------------------------------------------------------------------------

    Molecular point group: c1
  Charge       = 0
  Multiplicity = 1
  Basis Set: 6-31G(D)
  Basis Set:
  @DF-RHF Final Energy:  -157.28731675488632
    Total Energy =                       -157.2873167548861488
  Basis Set:
    Molecular point group: c1
  Basis Set: 6-31G(D)
  Basis Set:
  Basis Set:
	 Reference Energy          =    -157.2873167548863194 [Eh]
	 Singles Energy            =      -0.0000000000000000 [Eh]
	 Same-Spin Energy          =      -0.1252438798711873 [Eh]
	 Opposite-Spin Energy      =      -0.4210940119937202 [Eh]
	 Correlation Energy        =      -0.5463378918649074 [Eh]
	 Total Energy              =    -157.8336546467512278 [Eh]
	 SCS Total Energy          =    -157.8343775292358373 [Eh]
  Basis Set: 6-31G(D)
  Basis Set:
  @DF-RHF Final Energy:  -157.29286822837298
    Total Energy =                       -157.2928682283731519
  Basis Set:
  Basis Set: 6-31G(D)
  Basis Set:
  @DF-RHF Final Energy:  -157.29429547595291
    Total Energy =                       -157.2942954759528504
  @DF-RHF Final Energy:  -157.29516520382339
    Total Energy =                       -157.2951652038234442
  @DF-RHF Final Energy:  -157.29541136315541
    Total Energy =                       -157.2954113631554378
  @DF-RHF Final Energy:  -157.29545650199998
    Total Energy =                       -157.2954565020000359
  @DF-RHF Final Energy:  -157.29548758334144
    Total Energy =                       -157.2954875833416963
  @DF-RHF Final Energy:  -157.29548423950587
    Total Energy =                       -157.2954842395058677
  @DF-RHF Final Energy:  -157.29548023967308
    Total Energy =                       -157.2954802396732532
	 Singles Energy            =      -0.0000000000000000 [Eh]
	 Same-Spin Energy          =      -0.1247076907387050 [Eh]
	 Opposite-Spin Energy      =      -0.4225825767361346 [Eh]
	 Correlation Energy        =      -0.5472902674748396 [Eh]
	 Total Energy              =    -157.8427705071479181 [Eh]
	 SCS Total Energy          =    -157.8441485620026867 [Eh]
  Charge       = 0
  Multiplicity = 1
  Basis Set: 6-31G(D)
  Basis Set:

    Orbital Energies (a.u.)
    -----------------------

    Doubly Occupied:

       1A    -11.216047     2A    -11.215456     3A    -11.209681
       4A    -11.209675     5A     -1.070315     6A     -0.974056
       7A     -0.874520     8A     -0.771688     9A     -0.626877
      10A     -0.618121    11A     -0.570460    12A     -0.535189
      13A     -0.529215    14A     -0.503416    15A     -0.460690
      16A     -0.458111    17A     -0.454559

  @DF-RHF Final Energy:  -157.29547832557458

   => Energetics <=

    Nuclear Repulsion Energy =            133.0048797326444685
    One-Electron Energy =                -474.0045594296253739
    Two-Electron Energy =                 183.7042013714062136
    DFT Exchange-Correlation Energy =       0.0000000000000000
    Empirical Dispersion Energy =           0.0000000000000000
    PCM Polarization Energy =               0.0000000000000000
    EFP Energy =                            0.0000000000000000
    Total Energy =                       -157.2954783255747202
  Basis Set:
    Molecular point group: c1
  Basis Set: 6-31G(D)
  Basis Set:
  Basis Set:
	 Reference Energy          =    -157.2954783255745781 [Eh]
	 Singles Energy            =      -0.0000000000000000 [Eh]
	 Same-Spin Energy          =      -0.1247074312824468 [Eh]
	 Opposite-Spin Energy      =      -0.4225831058601217 [Eh]
	 Correlation Energy        =      -0.5472905371425685 [Eh]
	 Total Energy              =    -157.8427688627171506 [Eh]

	 ================> DF-SCS-MP2 Energies <==================
	-----------------------------------------------------------
	 SCS Same-Spin Scale       =       0.3333333333333333 [-]
	 SCS Opposite-Spin Scale   =       1.2000000000000000 [-]
	 SCS Same-Spin Energy      =      -0.0415691437608156 [Eh]
	 SCS Opposite-Spin Energy  =      -0.5070997270321460 [Eh]
	 SCS Correlation Energy    =      -0.5486688707929617 [Eh]
	 SCS Total Energy          =    -157.8441471963675440 [Eh]
	-----------------------------------------------------------

  -Total Gradient:
     Atom            X                  Y                   Z
    ------   -----------------  -----------------  -----------------
       1       -0.000003397329     0.000003912479    -0.000004257944
       2        0.000005482949    -0.000007349214    -0.000001534713
       3        0.000008026186     0.000000523549     0.000005515316
       4        0.000539451600     0.000384828633    -0.002166265941
       5        0.000000053979    -0.000001351705    -0.000000035329
       6       -0.000000358527    -0.000007635081    -0.000012008014
       7       -0.001540738554    -0.000906613348     0.003424244221
       8       -0.000013986041     0.000002569511    -0.000001513114
       9       -0.000000326957     0.000001281373    -0.000000550153
      10        0.002909170608     0.001387081115    -0.002128911963
      11       -0.000004382903     0.000008490258     0.000002958120
      12       -0.000002654272    -0.000006076336    -0.000001317247
      13        0.000004802639     0.000004091758     0.000007035596
      14       -0.001901143378    -0.000863752990     0.000876641166

  **** Optimization is complete! (in 10 steps) ****
    Final optimized geometry and variables:
    Molecular point group: c1

    Geometry (in Angstrom), charge = 0, multiplicity = 1:

    H           -1.909338879339     0.247494535982     0.732036204011
    H           -1.707880156626     1.952449012878     0.312315361761
    H           -1.493895284047     0.711885915219    -0.922569894804
    C           -1.319850709233     0.946494096191     0.129685702931
    H            0.720813379859     1.535353278234    -0.178223543341
    H            0.317127120200     1.240608692875     1.502857769301
    C            0.161212228026     0.863993804238     0.485582702558
    H            1.837480678769    -0.484053645650     0.536298961577
    H            0.360172210353    -1.155783630629     1.201285352788
    C            0.754243995911    -0.542546358472     0.380820585611
    H            0.987989407629    -2.205225780839    -0.993631225748
    H            0.790345304589    -0.640410761183    -1.791070319805
    H           -0.603246713480    -1.448262573029    -1.062200249096
    C            0.463220638818    -1.247285751680    -0.940414923640

*** Psi4 exiting successfully. Buy a developer a beer!
