                               Psi4 1.1 release

  ==> Input File <==

--------------------------------------------------------------------------

memory 5 Gb

molecule phepyrOH_neutral {
  symmetry C1
  0 1
  C      1.885   -1.036   -0.112
  C      2.878   -1.652   2.002
  C      0.807   -0.463   0.561
  C      1.800   -1.079   2.676
  C      4.835   -1.448   -0.924
  C      4.324   -3.577   0.071
  C      5.895   -2.064   -1.569
  C      5.407   -4.098   -0.619
  C      2.921   -1.631   0.608
  C      4.040   -2.225   -0.090
  C      0.764   -0.484   1.955
  N      6.203   -3.374   -1.437
  O      -0.288   0.076   2.612
  H      1.904   -1.012   -1.199
  H      3.678   -2.112   2.578
  H      0.003   -0.001   -0.006
  H      1.772   -1.098   3.762
  H      4.645   -0.390   -1.074
  H      3.725   -4.215   0.713
  H      6.547   -1.501   -2.229
  H      5.670   -5.146   -0.528
  H      -0.175   -0.018   3.571
  units Angstrom
}

dih_string = "1 9 10 5 60"
set optking fixed_dihedral = $dih_string

optimize('MP2/aug-cc-PVTZ')
--------------------------------------------------------------------------

    Molecular point group: c1
  Charge       = 0
  Multiplicity = 1
  Basis Set: AUG-CC-PVTZ
    Blend: AUG-CC-PVTZ
  Basis Set: (AUG-CC-PVTZ AUX)
    Blend: AUG-CC-PVTZ-JKFIT
  @DF-RHF Final Energy:  -551.28619036217560
    Total Energy =                       -551.2861903621756028
  Basis Set: (AUG-CC-PVTZ AUX)
    Blend: AUG-CC-PVTZ-RI
    Molecular point group: c1
  Basis Set: AUG-CC-PVTZ
    Blend: AUG-CC-PVTZ
  Basis Set: (AUG-CC-PVTZ AUX)
    Blend: AUG-CC-PVTZ-JKFIT
  Basis Set: (AUG-CC-PVTZ AUX)
    Blend: AUG-CC-PVTZ-JKFIT
	 Reference Energy          =    -551.2861903621756028 [Eh]
	 Singles Energy            =      -0.0000000000000004 [Eh]
	 Same-Spin Energy          =      -0.6044526932535201 [Eh]
	 Opposite-Spin Energy      =      -1.8300545005484223 [Eh]
	 Correlation Energy        =      -2.4345071938019429 [Eh]
	 Total Energy              =    -553.7206975559774946 [Eh]
	 SCS Total Energy          =    -553.6837399939182660 [Eh]
  @DF-RHF Final Energy:  -551.29149033077908
    Total Energy =                       -551.2914903307790837
  @DF-RHF Final Energy:  -551.29248535525210
    Total Energy =                       -551.2924853552520972
  @DF-RHF Final Energy:  -551.29239453646630
    Total Energy =                       -551.2923945364663041
  @DF-RHF Final Energy:  -551.29237497512224
    Total Energy =                       -551.2923749751222431
  Charge       = 0
  Multiplicity = 1
  Basis Set: AUG-CC-PVTZ
    Blend: AUG-CC-PVTZ
  Basis Set: (AUG-CC-PVTZ AUX)
    Blend: AUG-CC-PVTZ-JKFIT

    Orbital Energies (a.u.)
    -----------------------

    Doubly Occupied:

       1A    -20.600430     2A    -15.561296     3A    -11.311596
       4A    -11.271652     5A    -11.271545     6A    -11.263265
       7A    -11.251612     8A    -11.249589     9A    -11.244639
      10A    -11.243031    11A    -11.236545    12A    -11.235763
      13A    -11.235684    14A     -1.417626    15A     -1.258134
      16A     -1.174262    17A     -1.104950    18A     -1.036834
      19A     -1.031201    20A     -1.012572    21A     -0.880150
      22A     -0.867664    23A     -0.848945    24A     -0.811965
      25A     -0.747057    26A     -0.725373    27A     -0.682362
      28A     -0.662050    29A     -0.657925    30A     -0.637077
      31A     -0.615769    32A     -0.603214    33A     -0.602063
      34A     -0.595388    35A     -0.581504    36A     -0.541512
      37A     -0.531188    38A     -0.522516    39A     -0.504737
      40A     -0.492286    41A     -0.416943    42A     -0.387574
      43A     -0.355978    44A     -0.347136    45A     -0.316573

  @DF-RHF Final Energy:  -551.29237662078742

   => Energetics <=

    Nuclear Repulsion Energy =            697.5553996872538391
    One-Electron Energy =               -2131.8012057100245329
    Two-Electron Energy =                 882.9534294019832714
    DFT Exchange-Correlation Energy =       0.0000000000000000
    Empirical Dispersion Energy =           0.0000000000000000
    PCM Polarization Energy =               0.0000000000000000
    EFP Energy =                            0.0000000000000000
    Total Energy =                       -551.2923766207874223
  Basis Set: (AUG-CC-PVTZ AUX)
    Blend: AUG-CC-PVTZ-RI
    Molecular point group: c1
  Basis Set: AUG-CC-PVTZ
    Blend: AUG-CC-PVTZ
  Basis Set: (AUG-CC-PVTZ AUX)
    Blend: AUG-CC-PVTZ-JKFIT
  Basis Set: (AUG-CC-PVTZ AUX)
    Blend: AUG-CC-PVTZ-JKFIT
	 Reference Energy          =    -551.2923766207874223 [Eh]
	 Singles Energy            =      -0.0000000000000002 [Eh]
	 Same-Spin Energy          =      -0.6036849685464609 [Eh]
	 Opposite-Spin Energy      =      -1.8278946980077917 [Eh]
	 Correlation Energy        =      -2.4315796665542528 [Eh]
	 Total Energy              =    -553.7239562873417071 [Eh]

	 ================> DF-SCS-MP2 Energies <==================
	-----------------------------------------------------------
	 SCS Same-Spin Scale       =       0.3333333333333333 [-]
	 SCS Opposite-Spin Scale   =       1.2000000000000000 [-]
	 SCS Same-Spin Energy      =      -0.2012283228488203 [Eh]
	 SCS Opposite-Spin Energy  =      -2.1934736376093498 [Eh]
	 SCS Correlation Energy    =      -2.3947019604581703 [Eh]
	 SCS Total Energy          =    -553.6870785812456006 [Eh]
	-----------------------------------------------------------

  -Total Gradient:
     Atom            X                  Y                   Z
    ------   -----------------  -----------------  -----------------
       1       -0.001537972320    -0.002841586899    -0.000074112284
       2       -0.000011667664    -0.000013079102     0.000040734195
       3       -0.000044923258     0.000026502381     0.000064083865
       4        0.000036755169    -0.000021674379    -0.000022919844
       5        0.001964779657     0.000700884198     0.002461291777
       6        0.000046512224     0.000017478717     0.000059586392
       7        0.000145302103     0.000031163421     0.000139561316
       8       -0.000115953923    -0.000062791502    -0.000203218054
       9        0.003299022662     0.004610853745     0.001324535952
      10       -0.003739647473    -0.002457683050    -0.003839144047
      11       -0.000000402403     0.000002457403    -0.000013852411
      12       -0.000039771572     0.000016881861     0.000029773381
      13       -0.000016758002     0.000001058942     0.000002597894
      14       -0.000012145192     0.000000700227     0.000007477433
      15       -0.000014226197    -0.000012954537    -0.000003927906
      16        0.000022074178    -0.000003964544    -0.000020980904
      17       -0.000006257570     0.000006782143     0.000007735743
      18       -0.000011542641    -0.000009318953    -0.000003040169
      19        0.000018904510     0.000017274004     0.000028921535
      20       -0.000041548261    -0.000013155383    -0.000052652261
      21        0.000055778651     0.000003119851     0.000069853254
      22        0.000003687306     0.000001051460    -0.000002304822

  **** Optimization is complete! (in 6 steps) ****
    Final optimized geometry and variables:
    Molecular point group: c1

    Geometry (in Angstrom), charge = 0, multiplicity = 1:

    C           -1.259453952606     0.766814171898    -0.558546672298
    C           -0.288126274594     0.077639832144     1.518093372774
    C           -2.332031041569     1.321246843397     0.118122495969
    C           -1.356425978609     0.635044642142     2.203640226682
    C            1.703014385649     0.261502533622    -1.452793692288
    C            1.224380692957    -1.810215892828    -0.400422677219
    C            2.765761414804    -0.362514076863    -2.087524103705
    C            2.307821913782    -2.347989240978    -1.077598822813
    C           -0.216628474347     0.149779468648     0.130081996620
    C            0.893548392438    -0.473178711027    -0.593025478542
    C           -2.380545835843     1.258902322158     1.503786508593
    N            3.078140752935    -1.648990703269    -1.914512327974
    O           -3.458300811240     1.824225035225     2.116105296117
    H           -1.232117349158     0.805423585197    -1.637572815661
    H            0.507347556200    -0.403327341602     2.067938453017
    H           -3.142582137541     1.796135514865    -0.412334015640
    H           -1.391609700412     0.585981557368     3.283295156549
    H            1.507826376907     1.310305065477    -1.619250685854
    H            0.632768450059    -2.426773439806     0.259608459233
    H            3.401438653963     0.197054663490    -2.759495590245
    H            2.570045228637    -3.388236872323    -0.943434722671
    H           -3.373038140352     1.710208236550     3.067401479891

*** Psi4 exiting successfully. Buy a developer a beer!
