                               Psi4 1.1 release

  ==> Input File <==

--------------------------------------------------------------------------

memory 1000 mb

molecule butane {
  symmetry C1
  0 1
  H      2.085   1.043   -9.982
  H      2.488   2.733   -9.793
  H      3.563   1.672   -10.669
  C      2.885   1.741   -9.845
  H      4.431   2.114   -8.401
  H      2.953   1.486   -7.712
  C      3.631   1.416   -8.537
  H      3.665   -0.647   -7.940
  H      4.104   -0.384   -9.610
  C      4.203   -0.012   -8.612
  H      6.088   -0.983   -8.270
  H      5.791   0.381   -7.220
  H      6.230   0.644   -8.890
  C      5.691   0.009   -8.218
  units Angstrom
}

dih_string = "14 10 7 4 130"
set optking fixed_dihedral = $dih_string

optimize('MP2/aug-cc-pvtz')
--------------------------------------------------------------------------

    Molecular point group: c1
  Charge       = 0
  Multiplicity = 1
  Basis Set: AUG-CC-PVTZ
    Blend: AUG-CC-PVTZ
  Basis Set: (AUG-CC-PVTZ AUX)
    Blend: AUG-CC-PVTZ-JKFIT
  @DF-RHF Final Energy:  -157.34715960172289
    Total Energy =                       -157.3471596017228933
  Basis Set: (AUG-CC-PVTZ AUX)
    Blend: AUG-CC-PVTZ-RI
    Molecular point group: c1
  Basis Set: AUG-CC-PVTZ
    Blend: AUG-CC-PVTZ
  Basis Set: (AUG-CC-PVTZ AUX)
    Blend: AUG-CC-PVTZ-JKFIT
  Basis Set: (AUG-CC-PVTZ AUX)
    Blend: AUG-CC-PVTZ-JKFIT
	 Reference Energy          =    -157.3471596017228933 [Eh]
	 Singles Energy            =      -0.0000000000000001 [Eh]
	 Same-Spin Energy          =      -0.1655269394954634 [Eh]
	 Opposite-Spin Energy      =      -0.6396311322237437 [Eh]
	 Correlation Energy        =      -0.8051580717192072 [Eh]
	 Total Energy              =    -158.1523176734420986 [Eh]
	 SCS Total Energy          =    -158.1698926068898743 [Eh]
  @DF-RHF Final Energy:  -157.34989574500881
    Total Energy =                       -157.3498957450088085
  @DF-RHF Final Energy:  -157.35075888396301
    Total Energy =                       -157.3507588839630102
  @DF-RHF Final Energy:  -157.35105052191460
    Total Energy =                       -157.3510505219146012
  @DF-RHF Final Energy:  -157.35104988606935
    Total Energy =                       -157.3510498860693474
  Charge       = 0
  Multiplicity = 1
  Basis Set: AUG-CC-PVTZ
    Blend: AUG-CC-PVTZ
  Basis Set: (AUG-CC-PVTZ AUX)
    Blend: AUG-CC-PVTZ-JKFIT

    Orbital Energies (a.u.)
    -----------------------

    Doubly Occupied:

       1A    -11.211212     2A    -11.210620     3A    -11.206627
       4A    -11.206620     5A     -1.071689     6A     -0.981986
       7A     -0.861325     8A     -0.787955     9A     -0.634597
      10A     -0.594913    11A     -0.582623    12A     -0.556247
      13A     -0.510760    14A     -0.506219    15A     -0.465227
      16A     -0.456390    17A     -0.455212

  @DF-RHF Final Energy:  -157.35105503467199

   => Energetics <=

    Nuclear Repulsion Energy =            131.6293165911165204
    One-Electron Energy =                -471.3603028370414449
    Two-Electron Energy =                 182.3799312112529094
    DFT Exchange-Correlation Energy =       0.0000000000000000
    Empirical Dispersion Energy =           0.0000000000000000
    PCM Polarization Energy =               0.0000000000000000
    EFP Energy =                            0.0000000000000000
    Total Energy =                       -157.3510550346719867
  Basis Set: (AUG-CC-PVTZ AUX)
    Blend: AUG-CC-PVTZ-RI
    Molecular point group: c1
  Basis Set: AUG-CC-PVTZ
    Blend: AUG-CC-PVTZ
  Basis Set: (AUG-CC-PVTZ AUX)
    Blend: AUG-CC-PVTZ-JKFIT
  Basis Set: (AUG-CC-PVTZ AUX)
    Blend: AUG-CC-PVTZ-JKFIT
	 Reference Energy          =    -157.3510550346719867 [Eh]
	 Singles Energy            =      -0.0000000000000002 [Eh]
	 Same-Spin Energy          =      -0.1654108191988408 [Eh]
	 Opposite-Spin Energy      =      -0.6400152110412073 [Eh]
	 Correlation Energy        =      -0.8054260302400483 [Eh]
	 Total Energy              =    -158.1564810649120432 [Eh]

	 ================> DF-SCS-MP2 Energies <==================
	-----------------------------------------------------------
	 SCS Same-Spin Scale       =       0.3333333333333333 [-]
	 SCS Opposite-Spin Scale   =       1.2000000000000000 [-]
	 SCS Same-Spin Energy      =      -0.0551369397329469 [Eh]
	 SCS Opposite-Spin Energy  =      -0.7680182532494487 [Eh]
	 SCS Correlation Energy    =      -0.8231551929823959 [Eh]
	 SCS Total Energy          =    -158.1742102276543847 [Eh]
	-----------------------------------------------------------

  -Total Gradient:
     Atom            X                  Y                   Z
    ------   -----------------  -----------------  -----------------
       1        0.000016300908     0.000008177730     0.000008546313
       2        0.000007713484    -0.000020716187    -0.000004819733
       3       -0.000023605934    -0.000000744802     0.000010435603
       4        0.001477937796     0.000657409528    -0.000673899504
       5       -0.000017998723    -0.000022025898     0.000018072589
       6        0.000008801471     0.000009658743    -0.000018277173
       7       -0.001849482862    -0.000789939043     0.000290361998
       8        0.000018097533     0.000003143659    -0.000014651648
       9       -0.000018852566     0.000005376134     0.000028553468
      10       -0.000036795039    -0.000089017083     0.002030387182
      11       -0.000005348443     0.000022204032     0.000001249606
      12       -0.000009634348    -0.000005486253    -0.000018459753
      13       -0.000003159306    -0.000011019718     0.000022219527
      14        0.000436026025     0.000232979160    -0.001679718477

  **** Optimization is complete! (in 6 steps) ****
    Final optimized geometry and variables:
    Molecular point group: c1

    Geometry (in Angstrom), charge = 0, multiplicity = 1:

    H           -2.054924460233     0.241336862927    -1.204426312632
    H           -1.677088885618     1.948541375799    -0.997428797048
    H           -0.577685703968     0.901915519338    -1.891339558205
    C           -1.246555390735     0.950304217379    -1.034018649163
    H            0.300516510969     1.349039268278     0.380921467649
    H           -1.155685544040     0.718098874367     1.099978698702
    C           -0.494279358835     0.614971969379     0.240878383398
    H           -0.438114086806    -1.459118783739     0.860384701667
    H            0.036016774087    -1.192575548961    -0.794849793764
    C            0.124455081955    -0.786920552748     0.214003951307
    H            2.011045932649    -1.793268954222     0.586657097312
    H            1.716863843397    -0.398519921978     1.620234062965
    H            2.166498683458    -0.163199493605    -0.062888277354
    C            1.588879224584    -0.791142346766     0.612962005699

*** Psi4 exiting successfully. Buy a developer a beer!
