                              Psi4 1.0.0 Driver

  ==> Input File <==

--------------------------------------------------------------------------

memory 1000 mb

molecule butane {
  symmetry C1
  0 1
  H      1.604   0.760   -8.260
  H      1.745   2.388   -8.880
  H      2.043   1.024   -9.930
  C      2.142   1.395   -8.932
  H      4.169   2.051   -9.210
  H      3.731   1.788   -7.539
  C      3.631   1.416   -8.537
  H      4.742   -0.132   -9.528
  H      4.863   -0.176   -7.786
  C      4.203   -0.012   -8.612
  H      3.448   -2.023   -8.609
  H      2.390   -0.868   -9.382
  H      2.511   -0.911   -7.640
  C      3.050   -1.031   -8.557
  units Angstrom
}

dih_string = "4 7 10 14 340"
set optking fixed_dihedral = $dih_string

optimize('MP2/6-31G(d)')
--------------------------------------------------------------------------

    Molecular point group: c1
  Charge       = 0
  Multiplicity = 1
  Basis Set: 6-31G(D)
  Basis Set:
  @DF-RHF Final Energy:  -157.27686027082967
    Total Energy =                       -157.2768602708296726
  Basis Set:
    Molecular point group: c1
  Basis Set: 6-31G(D)
  Basis Set:
  Basis Set:
	 Reference Energy          =    -157.2768602708296726 [Eh]
	 Singles Energy            =      -0.0000000000000000 [Eh]
	 Same-Spin Energy          =      -0.1254345681756872 [Eh]
	 Opposite-Spin Energy      =      -0.4216306925658418 [Eh]
	 Correlation Energy        =      -0.5470652607415289 [Eh]
	 Total Energy              =    -157.8239255315712057 [Eh]
	 SCS Total Energy          =    -157.8246286246339025 [Eh]
  Basis Set: 6-31G(D)
  Basis Set:
  @DF-RHF Final Energy:  -157.28575288299896
    Total Energy =                       -157.2857528829989064
  Basis Set:
  Basis Set: 6-31G(D)
  Basis Set:
  @DF-RHF Final Energy:  -157.28838296044688
    Total Energy =                       -157.2883829604470236
  @DF-RHF Final Energy:  -157.28959385117454
    Total Energy =                       -157.2895938511749137
  @DF-RHF Final Energy:  -157.29010509492974
    Total Energy =                       -157.2901050949295154
  @DF-RHF Final Energy:  -157.29018078610241
    Total Energy =                       -157.2901807861023542
  @DF-RHF Final Energy:  -157.29017744895700
    Total Energy =                       -157.2901774489570244
	 Singles Energy            =      -0.0000000000000000 [Eh]
	 Same-Spin Energy          =      -0.1244381399089765 [Eh]
	 Opposite-Spin Energy      =      -0.4226788429111506 [Eh]
	 Correlation Energy        =      -0.5471169828201271 [Eh]
	 Total Energy              =    -157.8372944317771100 [Eh]
	 SCS Total Energy          =    -157.8388714404200357 [Eh]
  Charge       = 0
  Multiplicity = 1
  Basis Set: 6-31G(D)
  Basis Set:

    Orbital Energies (a.u.)
    -----------------------

    Doubly Occupied:

       1A    -11.216250     2A    -11.215702     3A    -11.209647
       4A    -11.209636     5A     -1.066661     6A     -0.973944
       7A     -0.876737     8A     -0.767896     9A     -0.631884
      10A     -0.614517    11A     -0.565981    12A     -0.537788
      13A     -0.524704    14A     -0.508980    15A     -0.463176
      16A     -0.458048    17A     -0.444971

  @DF-RHF Final Energy:  -157.29018236415178

   => Energetics <=

    Nuclear Repulsion Energy =            132.8731775159683082
    One-Electron Energy =                -473.7536739815018336
    Two-Electron Energy =                 183.5903141013819209
    DFT Exchange-Correlation Energy =       0.0000000000000000
    Empirical Dispersion Energy =           0.0000000000000000
    PCM Polarization Energy =               0.0000000000000000
    EFP Energy =                            0.0000000000000000
    Total Energy =                       -157.2901823641515762
  Basis Set:
    Molecular point group: c1
  Basis Set: 6-31G(D)
  Basis Set:
  Basis Set:
	 Reference Energy          =    -157.2901823641517751 [Eh]
	 Singles Energy            =      -0.0000000000000000 [Eh]
	 Same-Spin Energy          =      -0.1244374799163875 [Eh]
	 Opposite-Spin Energy      =      -0.4226749442026040 [Eh]
	 Correlation Energy        =      -0.5471124241189914 [Eh]
	 Total Energy              =    -157.8372947882707535 [Eh]

	 ================> DF-SCS-MP2 Energies <==================
	-----------------------------------------------------------
	 SCS Same-Spin Scale       =       0.3333333333333333 [-]
	 SCS Opposite-Spin Scale   =       1.2000000000000000 [-]
	 SCS Same-Spin Energy      =      -0.0414791599721292 [Eh]
	 SCS Opposite-Spin Energy  =      -0.5072099330431248 [Eh]
	 SCS Correlation Energy    =      -0.5486890930152539 [Eh]
	 SCS Total Energy          =    -157.8388714571670164 [Eh]
	-----------------------------------------------------------

  -Total Gradient:
     Atom            X                  Y                   Z
    ------   -----------------  -----------------  -----------------
       1        0.000027299520     0.000001368715    -0.000003766808
       2        0.000016555293    -0.000019057193     0.000000512771
       3       -0.000001660039    -0.000001896741     0.000002980760
       4       -0.000986640650    -0.000487090890     0.004317151494
       5       -0.000028625609    -0.000039136146    -0.000018055013
       6       -0.000010384711    -0.000016253327     0.000028635065
       7        0.001169190195     0.000702888887    -0.008084730363
       8       -0.000015228656     0.000005327026    -0.000030179487
       9       -0.000049878009     0.000008551835     0.000013354332
      10        0.000426626986    -0.000056803602     0.008187238538
      11       -0.000001685904     0.000024916250     0.000000334707
      12        0.000019561481     0.000018176038     0.000007191242
      13       -0.000002147875    -0.000000076182    -0.000003070915
      14       -0.000562982023    -0.000140914669    -0.004417596323

  **** Optimization is complete! (in 8 steps) ****
    Final optimized geometry and variables:
    Molecular point group: c1

    Geometry (in Angstrom), charge = 0, multiplicity = 1:

    H           -1.740601956755     0.537804497962     0.459813962668
    H           -1.446353595245     2.143913587950    -0.208944691372
    H           -1.372232106503     0.727674327384    -1.258249268570
    C           -1.134684362284     1.096672318217    -0.255972340331
    H            0.925343580293     1.614336600295    -0.625413926750
    H            0.512039263440     1.397930012495     1.057791419291
    C            0.354844441836     0.976735976179     0.057572479910
    H            1.450400939875    -0.603333069142    -0.931474106918
    H            1.709274356598    -0.547559166062     0.794998099250
    C            0.936207281965    -0.453982207425     0.025527540031
    H            0.433199947028    -2.554144163463     0.143671123846
    H           -0.816166283331    -1.573001223288    -0.624345485954
    H           -0.611446826209    -1.530929298230     1.130590189277
    C           -0.076031723353    -1.586897871072     0.178042688325

*** Psi4 exiting successfully. Buy a developer a beer!
