                               Psi4 1.1 release

  ==> Input File <==

--------------------------------------------------------------------------

memory 5 Gb

molecule phepyrFOH_anion {
  symmetry C1
  -1 1
  C      1.885   -1.036   -0.112
  C      0.807   -0.463   0.561
  C      4.717   -3.304   0.458
  C      4.435   -1.718   -1.327
  C      1.800   -1.079   2.676
  C      5.779   -3.836   -0.255
  C      5.509   -2.321   -1.961
  C      2.921   -1.631   0.608
  C      4.038   -2.224   -0.095
  C      0.764   -0.484   1.955
  C      2.878   -1.652   2.002
  N      6.194   -3.371   -1.455
  O      -0.227   0.043   2.574
  F      3.866   -2.220   2.709
  H      1.904   -1.013   -1.200
  H      0.011   -0.007   -0.025
  H      4.436   -3.727   1.417
  H      3.929   -0.876   -1.790
  H      1.791   -1.109   3.764
  H      6.340   -4.680   0.132
  H      5.859   -1.963   -2.923
  units Angstrom
}

dih_string = "1 8 9 3 210"
set optking { fixed_dihedral = $dih_string
              dynamic_level = 1
              geom_maxiter = 250
              print_trajectory_xyz_file = True }

optimize('MP2/aug-cc-PVTZ')
--------------------------------------------------------------------------

    Molecular point group: c1
  Charge       = -1
  Multiplicity = 1
  Basis Set: AUG-CC-PVTZ
    Blend: AUG-CC-PVTZ
  Basis Set: (AUG-CC-PVTZ AUX)
    Blend: AUG-CC-PVTZ-JKFIT
  @DF-RHF Final Energy:  -649.60876681986599
    Total Energy =                       -649.6087668198658776
  Basis Set: (AUG-CC-PVTZ AUX)
    Blend: AUG-CC-PVTZ-RI
    Molecular point group: c1
  Basis Set: AUG-CC-PVTZ
    Blend: AUG-CC-PVTZ
  Basis Set: (AUG-CC-PVTZ AUX)
    Blend: AUG-CC-PVTZ-JKFIT
  Basis Set: (AUG-CC-PVTZ AUX)
    Blend: AUG-CC-PVTZ-JKFIT
	 Reference Energy          =    -649.6087668198659912 [Eh]
	 Singles Energy            =      -0.0000000000000001 [Eh]
	 Same-Spin Energy          =      -0.6868866584721144 [Eh]
	 Opposite-Spin Energy      =      -2.0271420008799295 [Eh]
	 Correlation Energy        =      -2.7140286593520440 [Eh]
	 Total Energy              =    -652.3227954792180299 [Eh]
	 SCS Total Energy          =    -652.2702994404126002 [Eh]
  @DF-RHF Final Energy:  -649.61676271030581
    Total Energy =                       -649.6167627103056930
  @DF-RHF Final Energy:  -649.62199166360870
    Total Energy =                       -649.6219916636086964
  @DF-RHF Final Energy:  -649.62468180466499
    Total Energy =                       -649.6246818046649878
  @DF-RHF Final Energy:  -649.62567555153748
    Total Energy =                       -649.6256755515375971
  @DF-RHF Final Energy:  -649.62607509497764
    Total Energy =                       -649.6260750949777503
  @DF-RHF Final Energy:  -649.62623386415726
    Total Energy =                       -649.6262338641572569
  @DF-RHF Final Energy:  -649.62629072724303
    Total Energy =                       -649.6262907272430311
  @DF-RHF Final Energy:  -649.62630389948424
    Total Energy =                       -649.6263038994841281
  Charge       = -1
  Multiplicity = 1
  Basis Set: AUG-CC-PVTZ
    Blend: AUG-CC-PVTZ
  Basis Set: (AUG-CC-PVTZ AUX)
    Blend: AUG-CC-PVTZ-JKFIT

    Orbital Energies (a.u.)
    -----------------------

    Doubly Occupied:

       1A    -26.178651     2A    -20.330632     3A    -15.446878
       4A    -11.194818     5A    -11.162945     6A    -11.161338
       7A    -11.151804     8A    -11.146893     9A    -11.117776
      10A    -11.114429    11A    -11.112758    12A    -11.088655
      13A    -11.070402    14A    -11.068946    15A     -1.490934
      16A     -1.162795    17A     -1.144018    18A     -1.024799
      19A     -0.967355    20A     -0.919372    21A     -0.878592
      22A     -0.852683    23A     -0.746481    24A     -0.741596
      25A     -0.695541    26A     -0.676574    27A     -0.608553
      28A     -0.578920    29A     -0.567411    30A     -0.559934
      31A     -0.543628    32A     -0.526617    33A     -0.509042
      34A     -0.481212    35A     -0.476916    36A     -0.457845
      37A     -0.436405    38A     -0.433721    39A     -0.402351
      40A     -0.392261    41A     -0.388992    42A     -0.367258
      43A     -0.325827    44A     -0.309471    45A     -0.255011
      46A     -0.240083    47A     -0.237158    48A     -0.210259
      49A     -0.120390

  @DF-RHF Final Energy:  -649.62629074340748

   => Energetics <=

    Nuclear Repulsion Energy =            797.0347512783372395
    One-Electron Energy =               -2483.1682300868651510
    Two-Electron Energy =                1036.5071880651203173
    DFT Exchange-Correlation Energy =       0.0000000000000000
    Empirical Dispersion Energy =           0.0000000000000000
    PCM Polarization Energy =               0.0000000000000000
    EFP Energy =                            0.0000000000000000
    Total Energy =                       -649.6262907434074805
  Basis Set: (AUG-CC-PVTZ AUX)
    Blend: AUG-CC-PVTZ-RI
    Molecular point group: c1
  Basis Set: AUG-CC-PVTZ
    Blend: AUG-CC-PVTZ
  Basis Set: (AUG-CC-PVTZ AUX)
    Blend: AUG-CC-PVTZ-JKFIT
  Basis Set: (AUG-CC-PVTZ AUX)
    Blend: AUG-CC-PVTZ-JKFIT
	 Reference Energy          =    -649.6262907434074805 [Eh]
	 Singles Energy            =      -0.0000000000000006 [Eh]
	 Same-Spin Energy          =      -0.6847729985820529 [Eh]
	 Opposite-Spin Energy      =      -2.0250871926457910 [Eh]
	 Correlation Energy        =      -2.7098601912278442 [Eh]
	 Total Energy              =    -652.3361509346352705 [Eh]

	 ================> DF-SCS-MP2 Energies <==================
	-----------------------------------------------------------
	 SCS Same-Spin Scale       =       0.3333333333333333 [-]
	 SCS Opposite-Spin Scale   =       1.2000000000000000 [-]
	 SCS Same-Spin Energy      =      -0.2282576661940176 [Eh]
	 SCS Opposite-Spin Energy  =      -2.4301046311749492 [Eh]
	 SCS Correlation Energy    =      -2.6583622973689671 [Eh]
	 SCS Total Energy          =    -652.2846530407764476 [Eh]
	-----------------------------------------------------------

  -Total Gradient:
     Atom            X                  Y                   Z
    ------   -----------------  -----------------  -----------------
       1       -0.000459351308    -0.000881397346    -0.000001324936
       2       -0.000016779438    -0.000056389730    -0.000017024513
       3       -0.000653184054    -0.000577475893    -0.000395310506
       4        0.000069985640     0.000009324030    -0.000036882334
       5        0.000024622644    -0.000017286480     0.000128986465
       6        0.000026088940     0.000041930355     0.000088255713
       7       -0.000194354511    -0.000032751266    -0.000079534462
       8        0.000365087514     0.001052527238    -0.000278919968
       9        0.000712233134     0.000476081629     0.000776196897
      10        0.000177295869     0.000158580811    -0.000081441554
      11       -0.000244381697    -0.000159198709    -0.000163840956
      12        0.000114821261     0.000004501709    -0.000000328297
      13       -0.000040048813    -0.000064447325    -0.000017471956
      14        0.000166477238     0.000018818983     0.000056965124
      15       -0.000003186033     0.000016036715     0.000000529101
      16       -0.000040031202     0.000020754565     0.000036639165
      17        0.000023387779    -0.000031309599    -0.000025069051
      18        0.000015891860     0.000031280882     0.000017067267
      19       -0.000025409340     0.000009928413    -0.000004124743
      20       -0.000038018514    -0.000039330923    -0.000021013515
      21        0.000018853029     0.000019821944     0.000017647054

  **** Optimization is complete! (in 9 steps) ****
    Final optimized geometry and variables:
    Molecular point group: c1

    Geometry (in Angstrom), charge = -1, multiplicity = 1:

    C           -1.315724317004     0.789639077952    -0.734046933433
    C           -2.404422407211     1.349738994824    -0.113267982772
    C            1.587066261028    -1.519134730515    -0.252712657715
    C            1.258107419120     0.039145843012    -1.992641500305
    C           -1.478028663619     0.731948987617     2.013625365807
    C            2.615263884973    -2.058924068935    -1.004349976064
    C            2.294789652485    -0.570665378791    -2.673980320990
    C           -0.260367237233     0.169018484747    -0.036496279054
    C            0.852969108882    -0.424845257645    -0.732666209511
    C           -2.558822008965     1.365863807910     1.315265301879
    C           -0.420791698176     0.173299454500     1.352548664815
    N            2.992239867828    -1.615242731878    -2.210164571769
    O           -3.548666470306     1.880650002272     1.901016856237
    F            0.574164996789    -0.374750124805     2.121612532463
    H           -1.282104395610     0.784688287901    -1.815625702475
    H           -3.197256484303     1.790516192630    -0.701152315090
    H            1.343345819906    -1.957695890611     0.700213549675
    H            0.774365546343     0.898769456136    -2.431120145454
    H           -1.499381828886     0.706656640379     3.092206044255
    H            3.165671658620    -2.907536543461    -0.618105893112
    H            2.591882173767    -0.192377057115    -3.644106227735

*** Psi4 exiting successfully. Buy a developer a beer!
