                               Psi4 1.1 release

  ==> Input File <==

--------------------------------------------------------------------------

memory 5000 mb

molecule butane {
  symmetry C1
  0 1
  H      1.805   0.382   -8.997
  H      1.569   1.915   -8.192
  H      2.018   1.874   -9.880
  C      2.142   1.395   -8.932
  H      4.169   2.051   -9.210
  H      3.731   1.788   -7.539
  C      3.631   1.416   -8.537
  H      3.665   -0.647   -7.940
  H      4.104   -0.384   -9.610
  C      4.203   -0.012   -8.612
  H      6.088   -0.983   -8.270
  H      5.791   0.381   -7.220
  H      6.230   0.644   -8.890
  C      5.691   0.009   -8.218
  units Angstrom
}

dih_string = "10 7 4 3 250"
set optking fixed_dihedral = $dih_string

optimize('MP2/aug-cc-pvtz')
--------------------------------------------------------------------------

    Molecular point group: c1
  Charge       = 0
  Multiplicity = 1
  Basis Set: AUG-CC-PVTZ
    Blend: AUG-CC-PVTZ
  Basis Set: (AUG-CC-PVTZ AUX)
    Blend: AUG-CC-PVTZ-JKFIT
  @DF-RHF Final Energy:  -157.34757060166652
    Total Energy =                       -157.3475706016665185
  Basis Set: (AUG-CC-PVTZ AUX)
    Blend: AUG-CC-PVTZ-RI
    Molecular point group: c1
  Basis Set: AUG-CC-PVTZ
    Blend: AUG-CC-PVTZ
  Basis Set: (AUG-CC-PVTZ AUX)
    Blend: AUG-CC-PVTZ-JKFIT
  Basis Set: (AUG-CC-PVTZ AUX)
    Blend: AUG-CC-PVTZ-JKFIT
	 Reference Energy          =    -157.3475706016665185 [Eh]
	 Singles Energy            =      -0.0000000000000001 [Eh]
	 Same-Spin Energy          =      -0.1654795853958154 [Eh]
	 Opposite-Spin Energy      =      -0.6394466164493724 [Eh]
	 Correlation Energy        =      -0.8049262018451879 [Eh]
	 Total Energy              =    -158.1524968035116956 [Eh]
	 SCS Total Energy          =    -158.1700664032043733 [Eh]
  @DF-RHF Final Energy:  -157.35047461740496
    Total Energy =                       -157.3504746174049558
  @DF-RHF Final Energy:  -157.35137483361416
    Total Energy =                       -157.3513748336141589
  @DF-RHF Final Energy:  -157.35166622255352
    Total Energy =                       -157.3516662225535185
  Charge       = 0
  Multiplicity = 1
  Basis Set: AUG-CC-PVTZ
    Blend: AUG-CC-PVTZ
  Basis Set: (AUG-CC-PVTZ AUX)
    Blend: AUG-CC-PVTZ-JKFIT

    Orbital Energies (a.u.)
    -----------------------

    Doubly Occupied:

       1A    -11.211654     2A    -11.210867     3A    -11.205892
       4A    -11.205547     5A     -1.072702     6A     -0.980324
       7A     -0.861989     8A     -0.788783     9A     -0.638774
      10A     -0.583908    11A     -0.577889    12A     -0.569065
      13A     -0.511862    14A     -0.496567    15A     -0.470426
      16A     -0.457475    17A     -0.455352

  @DF-RHF Final Energy:  -157.35165115428839

   => Energetics <=

    Nuclear Repulsion Energy =            131.2847491080158591
    One-Electron Energy =                -470.6746482126719116
    Two-Electron Energy =                 182.0382479503676336
    DFT Exchange-Correlation Energy =       0.0000000000000000
    Empirical Dispersion Energy =           0.0000000000000000
    PCM Polarization Energy =               0.0000000000000000
    EFP Energy =                            0.0000000000000000
    Total Energy =                       -157.3516511542883904
  Basis Set: (AUG-CC-PVTZ AUX)
    Blend: AUG-CC-PVTZ-RI
    Molecular point group: c1
  Basis Set: AUG-CC-PVTZ
    Blend: AUG-CC-PVTZ
  Basis Set: (AUG-CC-PVTZ AUX)
    Blend: AUG-CC-PVTZ-JKFIT
  Basis Set: (AUG-CC-PVTZ AUX)
    Blend: AUG-CC-PVTZ-JKFIT
	 Reference Energy          =    -157.3516511542883904 [Eh]
	 Singles Energy            =      -0.0000000000000001 [Eh]
	 Same-Spin Energy          =      -0.1654401420947657 [Eh]
	 Opposite-Spin Energy      =      -0.6398473856471754 [Eh]
	 Correlation Energy        =      -0.8052875277419411 [Eh]
	 Total Energy              =    -158.1569386820303293 [Eh]

	 ================> DF-SCS-MP2 Energies <==================
	-----------------------------------------------------------
	 SCS Same-Spin Scale       =       0.3333333333333333 [-]
	 SCS Opposite-Spin Scale   =       1.2000000000000000 [-]
	 SCS Same-Spin Energy      =      -0.0551467140315886 [Eh]
	 SCS Opposite-Spin Energy  =      -0.7678168627766104 [Eh]
	 SCS Correlation Energy    =      -0.8229635768081990 [Eh]
	 SCS Total Energy          =    -158.1746147310965966 [Eh]
	-----------------------------------------------------------

  -Total Gradient:
     Atom            X                  Y                   Z
    ------   -----------------  -----------------  -----------------
       1       -0.000029588458    -0.000078260724    -0.000028737966
       2       -0.000007215053    -0.000005266918     0.000038186370
       3       -0.000223621799     0.001655676049     0.000813792960
       4        0.000211369242    -0.002099908542    -0.000548163895
       5        0.000028813414     0.000003238343    -0.000068309000
       6       -0.000028990295     0.000020907648    -0.000008209881
       7        0.000448842779     0.000677020176    -0.001470562733
       8       -0.000000609088    -0.000008054219     0.000019175742
       9       -0.000006227159     0.000005380841    -0.000055944838
      10       -0.000320939352    -0.000196781130     0.001311998858
      11        0.000030587269    -0.000065646865    -0.000002483682
      12        0.000027400002     0.000022833026     0.000066330004
      13        0.000044373160     0.000038889742    -0.000040280886
      14       -0.000174194658     0.000029972571    -0.000026791055

  **** Optimization is complete! (in 5 steps) ****
    Final optimized geometry and variables:
    Molecular point group: c1

    Geometry (in Angstrom), charge = 0, multiplicity = 1:

    H           -2.173420405008    -0.320720791049    -0.435461054627
    H           -2.396352517767     1.224646965729     0.362339090205
    H           -1.943924363244     1.179367799289    -1.324179947515
    C           -1.786649481530     0.693891667877    -0.364558048855
    H            0.259676908461     1.359889695807    -0.612248062787
    H           -0.192231410494     1.073898976374     1.046332174219
    C           -0.307971316320     0.689246620373     0.032790172619
    H           -0.239594745230    -1.354565692158     0.645257512358
    H            0.191466468461    -1.099393443110    -1.029747854102
    C            0.313804687236    -0.694071937085    -0.023776911179
    H            2.209261111713    -1.689712726056     0.317323599492
    H            1.917840928329    -0.304276748998     1.363575342354
    H            2.352311575900    -0.055690326723    -0.321741167724
    C            1.782073074099    -0.690195426712     0.354583185281

*** Psi4 exiting successfully. Buy a developer a beer!
