                              Psi4 1.0.0 Driver

  ==> Input File <==

--------------------------------------------------------------------------

memory 1000 mb

molecule butane {
  symmetry C1
  0 1
  H      1.604   0.760   -8.260
  H      1.745   2.388   -8.880
  H      2.043   1.024   -9.930
  C      2.142   1.395   -8.932
  H      4.169   2.051   -9.210
  H      3.731   1.788   -7.539
  C      3.631   1.416   -8.537
  H      3.788   -0.604   -7.823
  H      3.950   -0.448   -9.555
  C      4.203   -0.012   -8.612
  H      6.132   -0.953   -8.517
  H      5.988   0.476   -7.521
  H      6.150   0.631   -9.254
  C      5.734   0.039   -8.465
  units Angstrom
}

dih_string = "4 7 10 14 170"
set optking fixed_dihedral = $dih_string

optimize('MP2/6-31G(d)')
--------------------------------------------------------------------------

    Molecular point group: c1
  Charge       = 0
  Multiplicity = 1
  Basis Set: 6-31G(D)
  Basis Set:
  @DF-RHF Final Energy:  -157.29377611653598
    Total Energy =                       -157.2937761165358665
  Basis Set:
    Molecular point group: c1
  Basis Set: 6-31G(D)
  Basis Set:
  Basis Set:
	 Reference Energy          =    -157.2937761165359802 [Eh]
	 Singles Energy            =      -0.0000000000000000 [Eh]
	 Same-Spin Energy          =      -0.1243541580614087 [Eh]
	 Opposite-Spin Energy      =      -0.4201427338723571 [Eh]
	 Correlation Energy        =      -0.5444968919337658 [Eh]
	 Total Energy              =    -157.8382730084697414 [Eh]
	 SCS Total Energy          =    -157.8393987832032792 [Eh]
  Basis Set: 6-31G(D)
  Basis Set:
  @DF-RHF Final Energy:  -157.29659659025245
    Total Energy =                       -157.2965965902521361
  Basis Set:
  Basis Set: 6-31G(D)
  Basis Set:
  @DF-RHF Final Energy:  -157.29734314058339
    Total Energy =                       -157.2973431405834503
  @DF-RHF Final Energy:  -157.29753708500010
    Total Energy =                       -157.2975370850001298
  @DF-RHF Final Energy:  -157.29754366469044
    Total Energy =                       -157.2975436646904086
	 Singles Energy            =      -0.0000000000000000 [Eh]
	 Same-Spin Energy          =      -0.1244374285351354 [Eh]
	 Opposite-Spin Energy      =      -0.4222099189271576 [Eh]
	 Correlation Energy        =      -0.5466473474622930 [Eh]
	 Total Energy              =    -157.8441910121527201 [Eh]
	 SCS Total Energy          =    -157.8456747102480620 [Eh]
  Charge       = 0
  Multiplicity = 1
  Basis Set: 6-31G(D)
  Basis Set:

    Orbital Energies (a.u.)
    -----------------------

    Doubly Occupied:

       1A    -11.215764     2A    -11.215163     3A    -11.210301
       4A    -11.210297     5A     -1.070402     6A     -0.979794
       7A     -0.859481     8A     -0.786247     9A     -0.637644
      10A     -0.583636    11A     -0.576000    12A     -0.565843
      13A     -0.513574    14A     -0.494594    15A     -0.468335
      16A     -0.459822    17A     -0.455918

  @DF-RHF Final Energy:  -157.29755257668029

   => Energetics <=

    Nuclear Repulsion Energy =            130.8004070795453231
    One-Electron Energy =                -469.5902850453378505
    Two-Electron Energy =                 181.4923253891122954
    DFT Exchange-Correlation Energy =       0.0000000000000000
    Empirical Dispersion Energy =           0.0000000000000000
    PCM Polarization Energy =               0.0000000000000000
    EFP Energy =                            0.0000000000000000
    Total Energy =                       -157.2975525766802321
  Basis Set:
    Molecular point group: c1
  Basis Set: 6-31G(D)
  Basis Set:
  Basis Set:
	 Reference Energy          =    -157.2975525766802889 [Eh]
	 Singles Energy            =      -0.0000000000000000 [Eh]
	 Same-Spin Energy          =      -0.1244355172802543 [Eh]
	 Opposite-Spin Energy      =      -0.4222023653172185 [Eh]
	 Correlation Energy        =      -0.5466378825974728 [Eh]
	 Total Energy              =    -157.8441904592777689 [Eh]

	 ================> DF-SCS-MP2 Energies <==================
	-----------------------------------------------------------
	 SCS Same-Spin Scale       =       0.3333333333333333 [-]
	 SCS Opposite-Spin Scale   =       1.2000000000000000 [-]
	 SCS Same-Spin Energy      =      -0.0414785057600848 [Eh]
	 SCS Opposite-Spin Energy  =      -0.5066428383806622 [Eh]
	 SCS Correlation Energy    =      -0.5481213441407469 [Eh]
	 SCS Total Energy          =    -157.8456739208210422 [Eh]
	-----------------------------------------------------------

  -Total Gradient:
     Atom            X                  Y                   Z
    ------   -----------------  -----------------  -----------------
       1        0.000005943657     0.000000465901     0.000002814677
       2       -0.000014195857     0.000003646847    -0.000005563360
       3       -0.000011093344    -0.000000230770    -0.000001910735
       4        0.000378663464     0.000235622371    -0.001432408705
       5       -0.000012384733    -0.000005517316     0.000006113733
       6        0.000008736024    -0.000007700772     0.000003744872
       7       -0.000466878693    -0.000234768340     0.001405930982
       8       -0.000009638660     0.000006631275     0.000002250377
       9        0.000009563788     0.000003757346     0.000011061297
      10       -0.000045487722    -0.000122333247     0.001495940725
      11        0.000014909111    -0.000003008901    -0.000001258879
      12       -0.000007433381    -0.000001333078    -0.000000101418
      13        0.000010442568    -0.000000231255     0.000002499399
      14        0.000138853780     0.000124999939    -0.001489112966

  **** Optimization is complete! (in 6 steps) ****
    Final optimized geometry and variables:
    Molecular point group: c1

    Geometry (in Angstrom), charge = 0, multiplicity = 1:

    H           -2.377088518934     0.035737851083     0.370265402891
    H           -2.230107131719     1.692810132180    -0.228333703088
    H           -1.934670356681     0.329226646703    -1.315275304054
    C           -1.800133323798     0.689273983992    -0.291148480660
    H            0.224125127451     1.354499987181    -0.585782690616
    H           -0.195794747589     1.100393312812     1.098945937280
    C           -0.324157424468     0.687507661832     0.091154843837
    H           -0.140867526059    -1.335012617800     0.809194728364
    H            0.042953707600    -1.168382015582    -0.927946820901
    C            0.302633571419    -0.702509759027     0.030836782239
    H            2.244611072265    -1.682700030759     0.146120680112
    H            2.112229636763    -0.220316696848     1.130867252163
    H            2.276798896488    -0.090787903164    -0.623858044404
    C            1.819793526988    -0.675571029182     0.179722435529

*** Psi4 exiting successfully. Buy a developer a beer!
