                               Psi4 1.1 release

  ==> Input File <==

--------------------------------------------------------------------------

memory 5 Gb

molecule phepyrOH_cation {
  symmetry C1
  1 1
  C      1.885   -1.036   -0.112
  C      2.878   -1.652   2.002
  C      0.807   -0.463   0.561
  C      1.800   -1.079   2.676
  C      4.440   -1.719   -1.322
  C      4.716   -3.305   0.469
  C      5.516   -2.309   -1.970
  C      5.786   -3.855   -0.224
  C      2.921   -1.631   0.608
  C      4.040   -2.225   -0.090
  C      0.764   -0.484   1.955
  N      6.150   -3.348   -1.409
  O      -0.288   0.076   2.612
  H      1.904   -1.012   -1.199
  H      3.678   -2.112   2.578
  H      0.003   -0.001   -0.006
  H      1.772   -1.098   3.762
  H      3.931   -0.877   -1.782
  H      4.425   -3.721   1.429
  H      5.897   -1.982   -2.928
  H      6.368   -4.693   0.134
  H      6.938   -3.767   -1.902
  H      -0.988   -0.582   2.749
  units Angstrom
}

dih_string = "3 11 13 23 90"
set optking fixed_dihedral = $dih_string

optimize('MP2/aug-cc-PVTZ')
--------------------------------------------------------------------------

    Molecular point group: c1
  Charge       = 1
  Multiplicity = 1
  Basis Set: AUG-CC-PVTZ
    Blend: AUG-CC-PVTZ
  Basis Set: (AUG-CC-PVTZ AUX)
    Blend: AUG-CC-PVTZ-JKFIT
  @DF-RHF Final Energy:  -551.67027539423270
    Total Energy =                       -551.6702753942327035
  Basis Set: (AUG-CC-PVTZ AUX)
    Blend: AUG-CC-PVTZ-RI
    Molecular point group: c1
  Basis Set: AUG-CC-PVTZ
    Blend: AUG-CC-PVTZ
  Basis Set: (AUG-CC-PVTZ AUX)
    Blend: AUG-CC-PVTZ-JKFIT
  Basis Set: (AUG-CC-PVTZ AUX)
    Blend: AUG-CC-PVTZ-JKFIT
	 Reference Energy          =    -551.6702753942327035 [Eh]
	 Singles Energy            =      -0.0000000000000002 [Eh]
	 Same-Spin Energy          =      -0.5960687686903644 [Eh]
	 Opposite-Spin Energy      =      -1.8245639035793999 [Eh]
	 Correlation Energy        =      -2.4206326722697642 [Eh]
	 Total Energy              =    -554.0909080665024931 [Eh]
	 SCS Total Energy          =    -554.0584416680914046 [Eh]
  @DF-RHF Final Energy:  -551.67498283072484
    Total Energy =                       -551.6749828307248436
  @DF-RHF Final Energy:  -551.67562516142277
    Total Energy =                       -551.6756251614227722
  @DF-RHF Final Energy:  -551.67550751778413
    Total Energy =                       -551.6755075177841263
  @DF-RHF Final Energy:  -551.67556293709049
    Total Energy =                       -551.6755629370904899
  Charge       = 1
  Multiplicity = 1
  Basis Set: AUG-CC-PVTZ
    Blend: AUG-CC-PVTZ
  Basis Set: (AUG-CC-PVTZ AUX)
    Blend: AUG-CC-PVTZ-JKFIT

    Orbital Energies (a.u.)
    -----------------------

    Doubly Occupied:

       1A    -20.687472     2A    -15.831519     3A    -11.482400
       4A    -11.482315     5A    -11.452121     6A    -11.424329
       7A    -11.412509     8A    -11.412405     9A    -11.378854
      10A    -11.376300    11A    -11.375990    12A    -11.353304
      13A    -11.352997    14A     -1.510037    15A     -1.507547
      16A     -1.320674    17A     -1.267070    18A     -1.240540
      19A     -1.157136    20A     -1.154583    21A     -1.065319
      22A     -1.058504    23A     -0.971303    24A     -0.964444
      25A     -0.953429    26A     -0.867835    27A     -0.862562
      28A     -0.854425    29A     -0.819033    30A     -0.803093
      31A     -0.780967    32A     -0.770584    33A     -0.758645
      34A     -0.750698    35A     -0.725628    36A     -0.708250
      37A     -0.703764    38A     -0.661051    39A     -0.651971
      40A     -0.640655    41A     -0.589377    42A     -0.577812
      43A     -0.541214    44A     -0.470879    45A     -0.450633

  @DF-RHF Final Energy:  -551.67556617549894

   => Energetics <=

    Nuclear Repulsion Energy =            712.9128737551442327
    One-Electron Energy =               -2148.8125295982958960
    Two-Electron Energy =                 884.2240896676528337
    DFT Exchange-Correlation Energy =       0.0000000000000000
    Empirical Dispersion Energy =           0.0000000000000000
    PCM Polarization Energy =               0.0000000000000000
    EFP Energy =                            0.0000000000000000
    Total Energy =                       -551.6755661754989433
  Basis Set: (AUG-CC-PVTZ AUX)
    Blend: AUG-CC-PVTZ-RI
    Molecular point group: c1
  Basis Set: AUG-CC-PVTZ
    Blend: AUG-CC-PVTZ
  Basis Set: (AUG-CC-PVTZ AUX)
    Blend: AUG-CC-PVTZ-JKFIT
  Basis Set: (AUG-CC-PVTZ AUX)
    Blend: AUG-CC-PVTZ-JKFIT
	 Reference Energy          =    -551.6755661754989433 [Eh]
	 Singles Energy            =      -0.0000000000000001 [Eh]
	 Same-Spin Energy          =      -0.5953321965870624 [Eh]
	 Opposite-Spin Energy      =      -1.8229586353555036 [Eh]
	 Correlation Energy        =      -2.4182908319425662 [Eh]
	 Total Energy              =    -554.0938570074415566 [Eh]

	 ================> DF-SCS-MP2 Energies <==================
	-----------------------------------------------------------
	 SCS Same-Spin Scale       =       0.3333333333333333 [-]
	 SCS Opposite-Spin Scale   =       1.2000000000000000 [-]
	 SCS Same-Spin Energy      =      -0.1984440655290208 [Eh]
	 SCS Opposite-Spin Energy  =      -2.1875503624266042 [Eh]
	 SCS Correlation Energy    =      -2.3859944279556249 [Eh]
	 SCS Total Energy          =    -554.0615606034546090 [Eh]
	-----------------------------------------------------------

  -Total Gradient:
     Atom            X                  Y                   Z
    ------   -----------------  -----------------  -----------------
       1       -0.000020729988     0.000019548566    -0.000015311308
       2        0.000015140596     0.000007845849     0.000013367712
       3        0.000146674312     0.000220893166     0.000004972148
       4       -0.000013432135     0.000029285119     0.000021648770
       5        0.000040148400     0.000000456283    -0.000016435052
       6        0.000025004118    -0.000031312821    -0.000019110248
       7       -0.000010952542     0.000021262318    -0.000003214038
       8       -0.000012150301    -0.000010369868     0.000020251601
       9       -0.000024850486    -0.000009970191     0.000016630939
      10       -0.000011169061     0.000005185784     0.000015537179
      11       -0.000096242150    -0.000428627998    -0.000010695914
      12       -0.000003818744     0.000003342565     0.000002373251
      13       -0.000180320255     0.000258192618    -0.000327711791
      14        0.000014568167    -0.000014753135    -0.000000986593
      15        0.000006700993     0.000000990406    -0.000017065859
      16       -0.000001453894     0.000001287784     0.000018584439
      17       -0.000014813645    -0.000009768877    -0.000010427612
      18       -0.000021573252     0.000002755367     0.000012113199
      19       -0.000015807936     0.000013941079    -0.000000127143
      20       -0.000000837489    -0.000009254526     0.000001412518
      21        0.000004873691     0.000007069754    -0.000004416463
      22       -0.000004239061     0.000002013520     0.000001782742
      23        0.000179280665    -0.000080012765     0.000296827541

  **** Optimization is complete! (in 6 steps) ****
    Final optimized geometry and variables:
    Molecular point group: c1

    Geometry (in Angstrom), charge = 1, multiplicity = 1:

    C           -1.282526949773     0.731065605226    -0.561424442643
    C           -0.306214538117     0.086557283945     1.544947222030
    C           -2.354172041657     1.290897670439     0.107013564560
    C           -1.370837130535     0.660085146923     2.213202155316
    C            1.298270986257     0.016412529839    -1.795703744686
    C            1.595587401154    -1.543310259997    -0.012139067579
    C            2.367127428219    -0.547932071512    -2.445507598257
    C            2.661340625394    -2.085337744050    -0.685525905343
    C           -0.246519146151     0.117488474174     0.148699779059
    C            0.877778043994    -0.468255698851    -0.550891408975
    C           -2.404464124295     1.252335103457     1.496180460753
    N            3.016349904572    -1.576831133197    -1.876748880411
    O           -3.417979194821     1.881287042180     2.161442477053
    H           -1.275945789041     0.739840306315    -1.641036300397
    H            0.503295425336    -0.340460400571     2.117723696099
    H           -3.160152429592     1.762187500561    -0.433325197947
    H           -1.409540512046     0.670337261153     3.291114226939
    H            0.809231112828     0.861063003911    -2.252199795247
    H            1.306144413909    -1.983116849378     0.927976521318
    H            2.735093347372    -0.205583945022    -3.398322698763
    H            3.239001601991    -2.917178489172    -0.318391018002
    H            3.803761791989    -1.984456150819    -2.364478497879
    H           -4.161914960246     1.283295408537     2.286853008886

*** Psi4 exiting successfully. Buy a developer a beer!
