                               Psi4 1.1 release

  ==> Input File <==

--------------------------------------------------------------------------

memory 5 Gb

molecule phepyrF {
  symmetry C1
  0 1
  C      1.885   -1.036   -0.112
  C      0.807   -0.463   0.561
  C      2.921   -1.631   0.608
  C      0.764   -0.484   1.955
  C      3.704   -2.858   3.980
  C      5.245   -2.279   2.226
  C      4.769   -3.437   4.651
  C      6.241   -2.884   2.975
  C      2.878   -1.652   2.002
  C      3.955   -2.270   2.745
  C      1.800   -1.079   2.676
  N      6.036   -3.466   4.179
  F      1.744   -1.089   4.016
  H      1.918   -1.020   -1.198
  H      0.000   -0.000   -0.000
  H      3.755   -2.073   0.068
  H      -0.076   -0.038   2.480
  H      2.711   -2.871   4.417
  H      5.479   -1.830   1.266
  H      4.626   -3.911   5.616
  H      7.264   -2.917   2.615
  units Angstrom
}

dih_string = "3 9 10 5 210"
set optking fixed_dihedral = $dih_string

optimize('MP2/aug-cc-PVTZ')
--------------------------------------------------------------------------

    Molecular point group: c1
  Charge       = 0
  Multiplicity = 1
  Basis Set: AUG-CC-PVTZ
    Blend: AUG-CC-PVTZ
  Basis Set: (AUG-CC-PVTZ AUX)
    Blend: AUG-CC-PVTZ-JKFIT
  @DF-RHF Final Energy:  -575.27931758761940
    Total Energy =                       -575.2793175876194027
  Basis Set: (AUG-CC-PVTZ AUX)
    Blend: AUG-CC-PVTZ-RI
    Molecular point group: c1
  Basis Set: AUG-CC-PVTZ
    Blend: AUG-CC-PVTZ
  Basis Set: (AUG-CC-PVTZ AUX)
    Blend: AUG-CC-PVTZ-JKFIT
  Basis Set: (AUG-CC-PVTZ AUX)
    Blend: AUG-CC-PVTZ-JKFIT
	 Reference Energy          =    -575.2793175876194027 [Eh]
	 Singles Energy            =      -0.0000000000000008 [Eh]
	 Same-Spin Energy          =      -0.6090942623731661 [Eh]
	 Opposite-Spin Energy      =      -1.8334998926407700 [Eh]
	 Correlation Energy        =      -2.4425941550139370 [Eh]
	 Total Energy              =    -577.7219117426333241 [Eh]
	 SCS Total Energy          =    -577.6825488795793717 [Eh]
  @DF-RHF Final Energy:  -575.28579120940458
    Total Energy =                       -575.2857912094045787
  @DF-RHF Final Energy:  -575.28821958540027
    Total Energy =                       -575.2882195854002703
  @DF-RHF Final Energy:  -575.28892884164884
    Total Energy =                       -575.2889288416488398
  @DF-RHF Final Energy:  -575.28918615446730
    Total Energy =                       -575.2891861544673020
  @DF-RHF Final Energy:  -575.28930401634057
    Total Energy =                       -575.2893040163405658
  Charge       = 0
  Multiplicity = 1
  Basis Set: AUG-CC-PVTZ
    Blend: AUG-CC-PVTZ
  Basis Set: (AUG-CC-PVTZ AUX)
    Blend: AUG-CC-PVTZ-JKFIT

    Orbital Energies (a.u.)
    -----------------------

    Doubly Occupied:

       1A    -26.319257     2A    -15.563329     3A    -11.340183
       4A    -11.272464     5A    -11.271226     6A    -11.270869
       7A    -11.264729     8A    -11.258038     9A    -11.257483
      10A    -11.251657    11A    -11.248137    12A    -11.239913
      13A    -11.237047    14A     -1.638589    15A     -1.259909
      16A     -1.187167    17A     -1.115811    18A     -1.040357
      19A     -1.033668    20A     -1.030237    21A     -0.894172
      22A     -0.875230    23A     -0.845066    24A     -0.828619
      25A     -0.757655    26A     -0.722976    27A     -0.717606
      28A     -0.706062    29A     -0.673461    30A     -0.663060
      31A     -0.653907    32A     -0.624969    33A     -0.611615
      34A     -0.597625    35A     -0.592634    36A     -0.551990
      37A     -0.541835    38A     -0.527456    39A     -0.520516
      40A     -0.507972    41A     -0.419287    42A     -0.412579
      43A     -0.355310    44A     -0.348412    45A     -0.330827

  @DF-RHF Final Energy:  -575.28934460782239

   => Energetics <=

    Nuclear Repulsion Energy =            715.5447306592495806
    One-Electron Energy =               -2202.9063295192381702
    Two-Electron Energy =                 912.0722542521662035
    DFT Exchange-Correlation Energy =       0.0000000000000000
    Empirical Dispersion Energy =           0.0000000000000000
    PCM Polarization Energy =               0.0000000000000000
    EFP Energy =                            0.0000000000000000
    Total Energy =                       -575.2893446078223860
  Basis Set: (AUG-CC-PVTZ AUX)
    Blend: AUG-CC-PVTZ-RI
    Molecular point group: c1
  Basis Set: AUG-CC-PVTZ
    Blend: AUG-CC-PVTZ
  Basis Set: (AUG-CC-PVTZ AUX)
    Blend: AUG-CC-PVTZ-JKFIT
  Basis Set: (AUG-CC-PVTZ AUX)
    Blend: AUG-CC-PVTZ-JKFIT
	 Reference Energy          =    -575.2893446078223860 [Eh]
	 Singles Energy            =      -0.0000000000000002 [Eh]
	 Same-Spin Energy          =      -0.6076479015395855 [Eh]
	 Opposite-Spin Energy      =      -1.8304950723155795 [Eh]
	 Correlation Energy        =      -2.4381429738551650 [Eh]
	 Total Energy              =    -577.7274875816775648 [Eh]

	 ================> DF-SCS-MP2 Energies <==================
	-----------------------------------------------------------
	 SCS Same-Spin Scale       =       0.3333333333333333 [-]
	 SCS Opposite-Spin Scale   =       1.2000000000000000 [-]
	 SCS Same-Spin Energy      =      -0.2025493005131951 [Eh]
	 SCS Opposite-Spin Energy  =      -2.1965940867786955 [Eh]
	 SCS Correlation Energy    =      -2.3991433872918906 [Eh]
	 SCS Total Energy          =    -577.6884879951143148 [Eh]
	-----------------------------------------------------------

  -Total Gradient:
     Atom            X                  Y                   Z
    ------   -----------------  -----------------  -----------------
       1       -0.000028086209     0.000031385838     0.000023123465
       2        0.000021813740    -0.000029053041    -0.000048625048
       3        0.001072342990     0.001931391824     0.000047137505
       4       -0.000026069595     0.000036107671     0.000070521902
       5        0.000389906371     0.002079649833     0.000995205228
       6        0.000041732114    -0.000025637630    -0.000002595027
       7        0.000019235279    -0.000078145347    -0.000030641750
       8        0.000002803230     0.000022103320    -0.000032269465
       9       -0.001235139761    -0.001905520002     0.000466475912
      10       -0.000227427333    -0.002075604298    -0.001517176295
      11       -0.000023579284     0.000009405994    -0.000206034377
      12       -0.000002621435     0.000001523784     0.000041906320
      13        0.000014353905    -0.000018550977     0.000183447182
      14       -0.000002531882    -0.000000313655    -0.000009987434
      15       -0.000003793144    -0.000001398662    -0.000012708487
      16        0.000003171324    -0.000012151370    -0.000001882275
      17        0.000003282636    -0.000003297769     0.000010835417
      18       -0.000010822519    -0.000010658010     0.000012130923
      19        0.000001145029     0.000017092885    -0.000000872407
      20       -0.000013250274     0.000025288783     0.000018777532
      21        0.000003534803     0.000006380832    -0.000006768819

  **** Optimization is complete! (in 7 steps) ****
    Final optimized geometry and variables:
    Molecular point group: c1

    Geometry (in Angstrom), charge = 0, multiplicity = 1:

    C           -1.340069799614     0.791609217840    -2.695984353759
    C           -2.409721904859     1.419701792064    -2.073400428224
    C           -0.353721342360     0.190283364842    -1.932828886417
    C           -2.479344329601     1.443403545414    -0.689553723388
    C            0.478236752124    -1.014400131594     1.488121461465
    C            1.985869850618    -0.428954354235    -0.244693515716
    C            1.551902177844    -1.581944937257     2.155782171728
    C            2.995796086201    -1.016970864286     0.498148564488
    C           -0.398534393163     0.185557577990    -0.536117136313
    C            0.679930147654    -0.426136892660     0.241521626053
    C           -1.483387356518     0.834512990459     0.046045428841
    N            2.801109405941    -1.594155293684     1.685966003560
    F           -1.567844081683     0.914589461099     1.388511496028
    H           -1.277416390139     0.763326655020    -3.772253851062
    H           -3.185676089388     1.889755945930    -2.657045001837
    H            0.459996754819    -0.321689272100    -2.423102480901
    H           -3.286591890135     1.931717635730    -0.168196049881
    H           -0.503783141960    -1.055972902209     1.927642791672
    H            2.224185636068     0.046524157845    -1.183609359917
    H            1.399156855167    -2.049177749498     3.118456522142
    H            4.010300016142    -1.018540008829     0.124790788739

*** Psi4 exiting successfully. Buy a developer a beer!
