                               Psi4 1.1 release

  ==> Input File <==

--------------------------------------------------------------------------

memory 5 Gb

molecule phepyrFOH_zwitterion {
  symmetry C1
  0 1
  C      1.885   -1.036   -0.112
  C      0.807   -0.463   0.561
  C      4.716   -3.304   0.461
  C      4.436   -1.715   -1.328
  C      1.800   -1.079   2.676
  C      5.784   -3.853   -0.235
  C      5.510   -2.304   -1.979
  C      2.921   -1.631   0.608
  C      4.038   -2.224   -0.095
  C      0.764   -0.484   1.955
  C      2.878   -1.652   2.002
  N      6.146   -3.343   -1.421
  O      -0.227   0.043   2.574
  F      3.866   -2.220   2.709
  H      1.904   -1.013   -1.200
  H      0.011   -0.007   -0.025
  H      4.428   -3.722   1.421
  H      3.925   -0.873   -1.785
  H      1.791   -1.109   3.764
  H      6.367   -4.692   0.119
  H      5.888   -1.976   -2.937
  H      6.934   -3.760   -1.915
  units Angstrom
}

dih_string = "1 8 9 3 210"
set optking fixed_dihedral = $dih_string

optimize('MP2/aug-cc-PVTZ')
--------------------------------------------------------------------------

    Molecular point group: c1
  Charge       = 0
  Multiplicity = 1
  Basis Set: AUG-CC-PVTZ
    Blend: AUG-CC-PVTZ
  Basis Set: (AUG-CC-PVTZ AUX)
    Blend: AUG-CC-PVTZ-JKFIT
  @DF-RHF Final Energy:  -650.10582358048305
    Total Energy =                       -650.1058235804830474
  Basis Set: (AUG-CC-PVTZ AUX)
    Blend: AUG-CC-PVTZ-RI
    Molecular point group: c1
  Basis Set: AUG-CC-PVTZ
    Blend: AUG-CC-PVTZ
  Basis Set: (AUG-CC-PVTZ AUX)
    Blend: AUG-CC-PVTZ-JKFIT
  Basis Set: (AUG-CC-PVTZ AUX)
    Blend: AUG-CC-PVTZ-JKFIT
	 Reference Energy          =    -650.1058235804830474 [Eh]
	 Singles Energy            =      -0.0000000000000001 [Eh]
	 Same-Spin Energy          =      -0.6794257018134385 [Eh]
	 Opposite-Spin Energy      =      -2.0277997278018631 [Eh]
	 Correlation Energy        =      -2.7072254296153018 [Eh]
	 Total Energy              =    -652.8130490100983252 [Eh]
	 SCS Total Energy          =    -652.7656584877830710 [Eh]
  @DF-RHF Final Energy:  -650.11733285175683
    Total Energy =                       -650.1173328517568279
  @DF-RHF Final Energy:  -650.12621925279393
    Total Energy =                       -650.1262192527938168
  @DF-RHF Final Energy:  -650.13214335919884
    Total Energy =                       -650.1321433591988352
  @DF-RHF Final Energy:  -650.13514112228609
    Total Energy =                       -650.1351411222860861
  @DF-RHF Final Energy:  -650.13641011253287
    Total Energy =                       -650.1364101125329853
  @DF-RHF Final Energy:  -650.13708077747094
    Total Energy =                       -650.1370807774708283
  @DF-RHF Final Energy:  -650.13743099835585
    Total Energy =                       -650.1374309983557396
  @DF-RHF Final Energy:  -650.13751567157851
    Total Energy =                       -650.1375156715785124
  @DF-RHF Final Energy:  -650.13750356565288
    Total Energy =                       -650.1375035656528780
  @DF-RHF Final Energy:  -650.13749171643087
    Total Energy =                       -650.1374917164307590
  @DF-RHF Final Energy:  -650.13748543528459
    Total Energy =                       -650.1374854352845887
  @DF-RHF Final Energy:  -650.13745872189099
    Total Energy =                       -650.1374587218908800
  @DF-RHF Final Energy:  -650.13745203435974
    Total Energy =                       -650.1374520343597396
  @DF-RHF Final Energy:  -650.13742729040882
    Total Energy =                       -650.1374272904088230
  Charge       = 0
  Multiplicity = 1
  Basis Set: AUG-CC-PVTZ
    Blend: AUG-CC-PVTZ
  Basis Set: (AUG-CC-PVTZ AUX)
    Blend: AUG-CC-PVTZ-JKFIT

    Orbital Energies (a.u.)
    -----------------------

    Doubly Occupied:

       1A    -26.307451     2A    -20.480974     3A    -15.670966
       4A    -11.337836     5A    -11.334751     6A    -11.328366
       7A    -11.306536     8A    -11.286826     9A    -11.269138
      10A    -11.264947    11A    -11.244545    12A    -11.232070
      13A    -11.205940    14A    -11.203868    15A     -1.624129
      16A     -1.353451    17A     -1.317151    18A     -1.173423
      19A     -1.116437    20A     -1.095082    21A     -1.018712
      22A     -1.005936    23A     -0.914271    24A     -0.905047
      25A     -0.831664    26A     -0.821506    27A     -0.812730
      28A     -0.742675    29A     -0.720111    30A     -0.712034
      31A     -0.694406    32A     -0.677495    33A     -0.673369
      34A     -0.651314    35A     -0.630414    36A     -0.620098
      37A     -0.611933    38A     -0.598572    39A     -0.567957
      40A     -0.553567    41A     -0.531128    42A     -0.527562
      43A     -0.501337    44A     -0.480047    45A     -0.412183
      46A     -0.402616    47A     -0.378738    48A     -0.347860
      49A     -0.256762

  @DF-RHF Final Energy:  -650.13744081932089

   => Energetics <=

    Nuclear Repulsion Energy =            814.6000022687693445
    One-Electron Energy =               -2503.9630166237270714
    Two-Electron Energy =                1039.2255735356368405
    DFT Exchange-Correlation Energy =       0.0000000000000000
    Empirical Dispersion Energy =           0.0000000000000000
    PCM Polarization Energy =               0.0000000000000000
    EFP Energy =                            0.0000000000000000
    Total Energy =                       -650.1374408193207728
  Basis Set: (AUG-CC-PVTZ AUX)
    Blend: AUG-CC-PVTZ-RI
    Molecular point group: c1
  Basis Set: AUG-CC-PVTZ
    Blend: AUG-CC-PVTZ
  Basis Set: (AUG-CC-PVTZ AUX)
    Blend: AUG-CC-PVTZ-JKFIT
  Basis Set: (AUG-CC-PVTZ AUX)
    Blend: AUG-CC-PVTZ-JKFIT
	 Reference Energy          =    -650.1374408193208865 [Eh]
	 Singles Energy            =      -0.0000000000000006 [Eh]
	 Same-Spin Energy          =      -0.6727485596198126 [Eh]
	 Opposite-Spin Energy      =      -2.0231255613860073 [Eh]
	 Correlation Energy        =      -2.6958741210058204 [Eh]
	 Total Energy              =    -652.8333149403266589 [Eh]

	 ================> DF-SCS-MP2 Energies <==================
	-----------------------------------------------------------
	 SCS Same-Spin Scale       =       0.3333333333333333 [-]
	 SCS Opposite-Spin Scale   =       1.2000000000000000 [-]
	 SCS Same-Spin Energy      =      -0.2242495198732709 [Eh]
	 SCS Opposite-Spin Energy  =      -2.4277506736632088 [Eh]
	 SCS Correlation Energy    =      -2.6520001935364803 [Eh]
	 SCS Total Energy          =    -652.7894410128574236 [Eh]
	-----------------------------------------------------------

  -Total Gradient:
     Atom            X                  Y                   Z
    ------   -----------------  -----------------  -----------------
       1       -0.002678982898    -0.004641340639    -0.000093367645
       2        0.000033825156     0.000035345264    -0.000000744765
       3       -0.003542056657    -0.003487703717    -0.002524866420
       4       -0.000013298481    -0.000019396753     0.000010158778
       5        0.000011035400     0.000016657844    -0.000011282617
       6       -0.000008272231     0.000011439659     0.000011453781
       7       -0.000012857248     0.000000467335     0.000001039345
       8        0.002082825841     0.005065930504    -0.001292946987
       9        0.004160794083     0.003079496266     0.003923121343
      10       -0.000066295014    -0.000129068505    -0.000008608718
      11        0.000026845912     0.000077209930     0.000009283672
      12        0.000001279843    -0.000000786982    -0.000002319549
      13        0.000027563338     0.000041343036     0.000002252880
      14       -0.000011011971    -0.000042143154    -0.000012106100
      15       -0.000006335752    -0.000014528333    -0.000016560784
      16       -0.000002031751     0.000002065144     0.000001380729
      17       -0.000001591561    -0.000013731470     0.000006625330
      18       -0.000004639769     0.000012346292    -0.000008138697
      19        0.000003425741     0.000003330273     0.000002883339
      20        0.000000473735     0.000001027258     0.000001439232
      21       -0.000000711091     0.000001390245     0.000001236087
      22        0.000000015365     0.000000650511     0.000000067769

  **** Optimization is complete! (in 16 steps) ****
    Final optimized geometry and variables:
    Molecular point group: c1

    Geometry (in Angstrom), charge = 0, multiplicity = 1:

    C           -1.272941506057     0.890284386110    -0.742651592006
    C           -2.387037822233     1.376411386098    -0.143328033387
    C            1.593583577225    -1.453798213061    -0.175665141064
    C            1.217655968249     0.049490614675    -2.006837372263
    C           -1.500870092929     0.684249042162     2.025706073368
    C            2.568347184973    -2.055829988368    -0.905018079645
    C            2.207347434717    -0.571263479918    -2.698286865628
    C           -0.215247645393     0.260433129225    -0.018405143421
    C            0.855065730150    -0.342453151636    -0.682802435449
    C           -2.575774709093     1.319612168901     1.294294354886
    C           -0.423600545931     0.183519193779     1.385410546377
    N            2.880005925840    -1.616939563097    -2.152599600259
    O           -3.581136308514     1.776642181479     1.854695075427
    F            0.564490090511    -0.367811872684     2.136197273357
    H           -1.208114711228     0.924170060258    -1.819998447860
    H           -3.187526200727     1.804563028709    -0.727168749132
    H            1.373354169344    -1.856401420391     0.796066989594
    H            0.736924526817     0.891184849894    -2.476239496649
    H           -1.565851258933     0.629522576959     3.100273356888
    H            3.117689192829    -2.910060024394    -0.545533324445
    H            2.510345706619    -0.265547491417    -3.685920712594
    H            3.609323957271    -2.070246637036    -2.674630728883

*** Psi4 exiting successfully. Buy a developer a beer!
