                               Psi4 1.1 release

  ==> Input File <==

--------------------------------------------------------------------------

memory 5 Gb

molecule phepyrOH_neutral {
  symmetry C1
  0 1
  C      1.885   -1.036   -0.112
  C      2.878   -1.652   2.002
  C      0.807   -0.463   0.561
  C      1.800   -1.079   2.676
  C      5.339   -1.985   0.341
  C      3.819   -3.041   -1.195
  C      6.376   -2.579   -0.361
  C      4.924   -3.587   -1.828
  C      2.921   -1.631   0.608
  C      4.040   -2.225   -0.090
  C      0.764   -0.484   1.955
  N      6.201   -3.376   -1.438
  O      -0.288   0.076   2.612
  H      1.904   -1.012   -1.199
  H      3.678   -2.112   2.578
  H      0.003   -0.001   -0.006
  H      1.772   -1.098   3.762
  H      5.551   -1.355   1.199
  H      2.819   -3.250   -1.560
  H      7.408   -2.424   -0.064
  H      4.805   -4.229   -2.694
  H      -0.175   -0.018   3.571
  units Angstrom
}

dih_string = "1 9 10 5 135"
set optking fixed_dihedral = $dih_string

optimize('MP2/aug-cc-PVTZ')
--------------------------------------------------------------------------

    Molecular point group: c1
  Charge       = 0
  Multiplicity = 1
  Basis Set: AUG-CC-PVTZ
    Blend: AUG-CC-PVTZ
  Basis Set: (AUG-CC-PVTZ AUX)
    Blend: AUG-CC-PVTZ-JKFIT
  @DF-RHF Final Energy:  -551.28701311143698
    Total Energy =                       -551.2870131114369769
  Basis Set: (AUG-CC-PVTZ AUX)
    Blend: AUG-CC-PVTZ-RI
    Molecular point group: c1
  Basis Set: AUG-CC-PVTZ
    Blend: AUG-CC-PVTZ
  Basis Set: (AUG-CC-PVTZ AUX)
    Blend: AUG-CC-PVTZ-JKFIT
  Basis Set: (AUG-CC-PVTZ AUX)
    Blend: AUG-CC-PVTZ-JKFIT
	 Reference Energy          =    -551.2870131114369769 [Eh]
	 Singles Energy            =      -0.0000000000000003 [Eh]
	 Same-Spin Energy          =      -0.6048126345738994 [Eh]
	 Opposite-Spin Energy      =      -1.8304426270868284 [Eh]
	 Correlation Energy        =      -2.4352552616607284 [Eh]
	 Total Energy              =    -553.7222683730976769 [Eh]
	 SCS Total Energy          =    -553.6851484754657804 [Eh]
  @DF-RHF Final Energy:  -551.29239221223952
    Total Energy =                       -551.2923922122395197
  @DF-RHF Final Energy:  -551.29336368786664
    Total Energy =                       -551.2933636878666448
  @DF-RHF Final Energy:  -551.29328589610998
    Total Energy =                       -551.2932858961099782
  @DF-RHF Final Energy:  -551.29325019028295
    Total Energy =                       -551.2932501902829472
  Charge       = 0
  Multiplicity = 1
  Basis Set: AUG-CC-PVTZ
    Blend: AUG-CC-PVTZ
  Basis Set: (AUG-CC-PVTZ AUX)
    Blend: AUG-CC-PVTZ-JKFIT

    Orbital Energies (a.u.)
    -----------------------

    Doubly Occupied:

       1A    -20.601593     2A    -15.560137     3A    -11.312957
       4A    -11.271241     5A    -11.271146     6A    -11.263902
       7A    -11.252613     8A    -11.250519     9A    -11.245362
      10A    -11.243698    11A    -11.237211    12A    -11.235257
      13A    -11.234993    14A     -1.418815    15A     -1.257485
      16A     -1.175188    17A     -1.105251    18A     -1.038407
      19A     -1.030486    20A     -1.012862    21A     -0.881400
      22A     -0.870918    23A     -0.845763    24A     -0.812382
      25A     -0.748543    26A     -0.725903    27A     -0.684371
      28A     -0.660497    29A     -0.657746    30A     -0.636344
      31A     -0.615012    32A     -0.605222    33A     -0.603212
      34A     -0.594042    35A     -0.581408    36A     -0.543317
      37A     -0.532928    38A     -0.522752    39A     -0.503565
      40A     -0.494580    41A     -0.416620    42A     -0.393262
      43A     -0.356260    44A     -0.347577    45A     -0.312133

  @DF-RHF Final Energy:  -551.29327109898986

   => Energetics <=

    Nuclear Repulsion Energy =            697.8816972748825265
    One-Electron Energy =               -2132.4201804871031527
    Two-Electron Energy =                 883.2452121132307639
    DFT Exchange-Correlation Energy =       0.0000000000000000
    Empirical Dispersion Energy =           0.0000000000000000
    PCM Polarization Energy =               0.0000000000000000
    EFP Energy =                            0.0000000000000000
    Total Energy =                       -551.2932710989898624
  Basis Set: (AUG-CC-PVTZ AUX)
    Blend: AUG-CC-PVTZ-RI
    Molecular point group: c1
  Basis Set: AUG-CC-PVTZ
    Blend: AUG-CC-PVTZ
  Basis Set: (AUG-CC-PVTZ AUX)
    Blend: AUG-CC-PVTZ-JKFIT
  Basis Set: (AUG-CC-PVTZ AUX)
    Blend: AUG-CC-PVTZ-JKFIT
	 Reference Energy          =    -551.2932710989898624 [Eh]
	 Singles Energy            =      -0.0000000000000003 [Eh]
	 Same-Spin Energy          =      -0.6039792321806686 [Eh]
	 Opposite-Spin Energy      =      -1.8282223687539387 [Eh]
	 Correlation Energy        =      -2.4322016009346079 [Eh]
	 Total Energy              =    -553.7254726999244667 [Eh]

	 ================> DF-SCS-MP2 Energies <==================
	-----------------------------------------------------------
	 SCS Same-Spin Scale       =       0.3333333333333333 [-]
	 SCS Opposite-Spin Scale   =       1.2000000000000000 [-]
	 SCS Same-Spin Energy      =      -0.2013264107268895 [Eh]
	 SCS Opposite-Spin Energy  =      -2.1938668425047263 [Eh]
	 SCS Correlation Energy    =      -2.3951932532316165 [Eh]
	 SCS Total Energy          =    -553.6884643522214446 [Eh]
	-----------------------------------------------------------

  -Total Gradient:
     Atom            X                  Y                   Z
    ------   -----------------  -----------------  -----------------
       1        0.000849702291     0.001388807504     0.000080563407
       2       -0.000002050842     0.000024330636     0.000056111432
       3       -0.000054543140     0.000034376074     0.000057450337
       4        0.000045455739    -0.000031907261    -0.000031140918
       5        0.000079245098     0.001289099300    -0.000981311700
       6        0.000011237933     0.000009484366    -0.000045518403
       7        0.000028365294     0.000065100503    -0.000079013307
       8        0.000020515202    -0.000088861886     0.000046342956
       9       -0.001209147427    -0.001442013062    -0.000634607640
      10        0.000308074718    -0.001285236827     0.001536815588
      11        0.000002677917    -0.000011887778    -0.000025244949
      12       -0.000049987549     0.000020068012     0.000033231341
      13       -0.000011027278     0.000014861951     0.000008095744
      14       -0.000009933499     0.000010749052     0.000005346852
      15       -0.000011029622     0.000003016087    -0.000009736823
      16        0.000023681627    -0.000014979200    -0.000015628813
      17       -0.000011882993     0.000006072015    -0.000001854029
      18       -0.000007479441    -0.000004271869    -0.000002435829
      19        0.000002844640     0.000012717087     0.000008320191
      20       -0.000003956248    -0.000022066610     0.000024391185
      21       -0.000003156672     0.000026633141    -0.000022572704
      22        0.000002394229    -0.000004091234    -0.000007603903

  **** Optimization is complete! (in 6 steps) ****
    Final optimized geometry and variables:
    Molecular point group: c1

    Geometry (in Angstrom), charge = 0, multiplicity = 1:

    C           -1.281138127483     0.685652870961    -0.553127164399
    C           -0.276829561290     0.112282288319     1.541575961160
    C           -2.344620567499     1.273044177491     0.108815288947
    C           -1.340812276804     0.693629057371     2.212607847738
    C            2.209792172959    -0.282561325609    -0.148156101661
    C            0.717443850792    -1.295580607127    -1.686933178024
    C            3.253091989041    -0.852762558067    -0.860051109514
    C            1.822425598032    -1.822130089111    -2.336552430336
    C           -0.234039597796     0.090970596580     0.149960954048
    C            0.898112770103    -0.505664486642    -0.555650029621
    C           -2.377864491335     1.276328083771     1.496412473686
    N            3.081161476677    -1.615450364816    -1.942265214526
    O           -3.450674976183     1.866079339163     2.093405675353
    H           -1.251941282143     0.706340779438    -1.632570080840
    H            0.517089388806    -0.353404179402     2.106661691152
    H           -3.150551357659     1.741349453097    -0.434353781701
    H           -1.366422800430     0.689221242493     3.293598484522
    H            2.416319924256     0.345024028260     0.705805301596
    H           -0.277105586087    -1.514929848066    -2.045560159406
    H            4.275652214798    -0.682818383884    -0.552887504319
    H            1.691868251051    -2.443218531360    -3.211820593951
    H           -3.350254316978     1.805140226165     3.048142304695

*** Psi4 exiting successfully. Buy a developer a beer!
