                               Psi4 1.1 release

  ==> Input File <==

--------------------------------------------------------------------------

memory 5 Gb

molecule phepyrF {
  symmetry C1
  0 1
  C      1.885   -1.036   -0.112
  C      0.807   -0.463   0.561
  C      2.921   -1.631   0.608
  C      0.764   -0.484   1.955
  C      4.089   -2.032   4.108
  C      4.859   -3.105   2.099
  C      5.136   -2.648   4.774
  C      5.872   -3.673   2.854
  C      2.878   -1.652   2.002
  C      3.955   -2.270   2.745
  C      1.800   -1.079   2.676
  N      6.034   -3.466   4.180
  F      1.744   -1.089   4.016
  H      1.918   -1.020   -1.198
  H      0.000   -0.000   -0.000
  H      3.755   -2.073   0.068
  H      -0.076   -0.038   2.480
  H      3.403   -1.387   4.648
  H      4.787   -3.314   1.036
  H      5.284   -2.497   5.839
  H      6.604   -4.331   2.397
  units Angstrom
}

dih_string = "3 9 10 5 165"
set optking fixed_dihedral = $dih_string

optimize('MP2/aug-cc-PVTZ')
--------------------------------------------------------------------------

    Molecular point group: c1
  Charge       = 0
  Multiplicity = 1
  Basis Set: AUG-CC-PVTZ
    Blend: AUG-CC-PVTZ
  Basis Set: (AUG-CC-PVTZ AUX)
    Blend: AUG-CC-PVTZ-JKFIT
  @DF-RHF Final Energy:  -575.27074037850412
    Total Energy =                       -575.2707403785041151
  Basis Set: (AUG-CC-PVTZ AUX)
    Blend: AUG-CC-PVTZ-RI
    Molecular point group: c1
  Basis Set: AUG-CC-PVTZ
    Blend: AUG-CC-PVTZ
  Basis Set: (AUG-CC-PVTZ AUX)
    Blend: AUG-CC-PVTZ-JKFIT
  Basis Set: (AUG-CC-PVTZ AUX)
    Blend: AUG-CC-PVTZ-JKFIT
	 Reference Energy          =    -575.2707403785041151 [Eh]
	 Singles Energy            =      -0.0000000000000001 [Eh]
	 Same-Spin Energy          =      -0.6099136687893246 [Eh]
	 Opposite-Spin Energy      =      -1.8346681012495758 [Eh]
	 Correlation Energy        =      -2.4445817700389005 [Eh]
	 Total Energy              =    -577.7153221485430095 [Eh]
	 SCS Total Energy          =    -577.6756466562667356 [Eh]
  @DF-RHF Final Energy:  -575.27886803162096
    Total Energy =                       -575.2788680316209593
  @DF-RHF Final Energy:  -575.28302424936351
    Total Energy =                       -575.2830242493635069
  @DF-RHF Final Energy:  -575.28491950814919
    Total Energy =                       -575.2849195081491871
  @DF-RHF Final Energy:  -575.28591232395001
    Total Energy =                       -575.2859123239500150
  @DF-RHF Final Energy:  -575.28645355962237
    Total Energy =                       -575.2864535596223732
  @DF-RHF Final Energy:  -575.28672635428654
    Total Energy =                       -575.2867263542865430
  @DF-RHF Final Energy:  -575.28676495875493
    Total Energy =                       -575.2867649587549295
  @DF-RHF Final Energy:  -575.28679161098034
    Total Energy =                       -575.2867916109803446
  @DF-RHF Final Energy:  -575.28676848411965
    Total Energy =                       -575.2867684841196478
  Charge       = 0
  Multiplicity = 1
  Basis Set: AUG-CC-PVTZ
    Blend: AUG-CC-PVTZ
  Basis Set: (AUG-CC-PVTZ AUX)
    Blend: AUG-CC-PVTZ-JKFIT

    Orbital Energies (a.u.)
    -----------------------

    Doubly Occupied:

       1A    -26.320773     2A    -15.562944     3A    -11.341887
       4A    -11.273360     5A    -11.271896     6A    -11.270565
       7A    -11.267625     8A    -11.258623     9A    -11.257925
      10A    -11.251600    11A    -11.248280    12A    -11.239731
      13A    -11.235574    14A     -1.640635    15A     -1.259923
      16A     -1.187270    17A     -1.115640    18A     -1.040542
      19A     -1.033202    20A     -1.031209    21A     -0.895185
      22A     -0.876332    23A     -0.843361    24A     -0.830671
      25A     -0.758590    26A     -0.723547    27A     -0.719581
      28A     -0.707335    29A     -0.674730    30A     -0.663061
      31A     -0.654149    32A     -0.624114    33A     -0.610029
      34A     -0.598619    35A     -0.590710    36A     -0.553429
      37A     -0.542956    38A     -0.528818    39A     -0.521155
      40A     -0.504860    41A     -0.419474    42A     -0.417823
      43A     -0.355573    44A     -0.347668    45A     -0.328146

  @DF-RHF Final Energy:  -575.28680733088845

   => Energetics <=

    Nuclear Repulsion Energy =            714.6699856822694983
    One-Electron Energy =               -2201.1153534913555632
    Two-Electron Energy =                 911.1585604781976144
    DFT Exchange-Correlation Energy =       0.0000000000000000
    Empirical Dispersion Energy =           0.0000000000000000
    PCM Polarization Energy =               0.0000000000000000
    EFP Energy =                            0.0000000000000000
    Total Energy =                       -575.2868073308884505
  Basis Set: (AUG-CC-PVTZ AUX)
    Blend: AUG-CC-PVTZ-RI
    Molecular point group: c1
  Basis Set: AUG-CC-PVTZ
    Blend: AUG-CC-PVTZ
  Basis Set: (AUG-CC-PVTZ AUX)
    Blend: AUG-CC-PVTZ-JKFIT
  Basis Set: (AUG-CC-PVTZ AUX)
    Blend: AUG-CC-PVTZ-JKFIT
	 Reference Energy          =    -575.2868073308884505 [Eh]
	 Singles Energy            =      -0.0000000000000005 [Eh]
	 Same-Spin Energy          =      -0.6078169826541697 [Eh]
	 Opposite-Spin Energy      =      -1.8309305076359288 [Eh]
	 Correlation Energy        =      -2.4387474902900990 [Eh]
	 Total Energy              =    -577.7255548211785481 [Eh]

	 ================> DF-SCS-MP2 Energies <==================
	-----------------------------------------------------------
	 SCS Same-Spin Scale       =       0.3333333333333333 [-]
	 SCS Opposite-Spin Scale   =       1.2000000000000000 [-]
	 SCS Same-Spin Energy      =      -0.2026056608847232 [Eh]
	 SCS Opposite-Spin Energy  =      -2.1971166091631145 [Eh]
	 SCS Correlation Energy    =      -2.3997222700478380 [Eh]
	 SCS Total Energy          =    -577.6865296009362964 [Eh]
	-----------------------------------------------------------

  -Total Gradient:
     Atom            X                  Y                   Z
    ------   -----------------  -----------------  -----------------
       1       -0.000003520489    -0.000045935286    -0.000009792521
       2        0.000024351805     0.000026089843     0.000017404802
       3       -0.001874195847    -0.003237969868    -0.000173257713
       4        0.000021556772     0.000055776863     0.000028901688
       5       -0.002222045718    -0.003105471710     0.000769775384
       6        0.000078659983     0.000004748497     0.000016342046
       7        0.000111836896     0.000044453031    -0.000035066172
       8       -0.000005420698    -0.000045138366     0.000049746600
       9        0.001520475637     0.003265664516     0.000594331591
      10        0.002588249498     0.003073440279    -0.001230749636
      11       -0.000148160116    -0.000165301353    -0.000136661499
      12       -0.000051179183     0.000048221743    -0.000032313937
      13        0.000030250873     0.000091977641     0.000022524019
      14        0.000000270972     0.000008103298     0.000022108075
      15        0.000017594214    -0.000007111889     0.000014864843
      16       -0.000031434072     0.000050618534     0.000025454773
      17        0.000021412467    -0.000011079087    -0.000003948451
      18       -0.000027424813     0.000002001901    -0.000003719388
      19        0.000001429434    -0.000002801040     0.000053795591
      20       -0.000044494020    -0.000050284048     0.000004849584
      21       -0.000008213605    -0.000000003504     0.000005410319

  **** Optimization is complete! (in 11 steps) ****
    Final optimized geometry and variables:
    Molecular point group: c1

    Geometry (in Angstrom), charge = 0, multiplicity = 1:

    C           -1.378522776847     0.860328353180    -2.655878865669
    C           -2.490078563978     1.389737562480    -2.016099381994
    C           -0.345431141410     0.319157118123    -1.911700083853
    C           -2.550735082203     1.362388253681    -0.633663209143
    C            0.954339476840    -0.159275515309     1.596408691586
    C            1.605982799319    -1.232880184370    -0.406777921989
    C            2.009165770759    -0.806885579413     2.220665823910
    C            2.628789328927    -1.837662362374     0.302745056628
    C           -0.362189075825     0.283959041447    -0.512193040714
    C            0.734834028235    -0.348026140942     0.231134597496
    C           -1.505319173183     0.815872367407     0.083141381703
    N            2.849556305974    -1.638840672796     1.604101114477
    F           -1.648831716712     0.786808109694     1.423175431106
    H           -1.310502053091     0.874617415583    -3.732068296296
    H           -3.302341410952     1.817167412806    -2.582695967368
    H            0.521737693651    -0.055956605296    -2.429973519172
    H           -3.398212991665     1.750759584928    -0.092459689542
    H            0.336652620349     0.503725929546     2.173876431543
    H            1.485210096476    -1.482497316262    -1.448101251675
    H            2.182034525481    -0.648356706406     3.275935825968
    H            3.299471466550    -2.521169812623    -0.198923009186

*** Psi4 exiting successfully. Buy a developer a beer!
