                               Psi4 1.1 release

  ==> Input File <==

--------------------------------------------------------------------------

memory 5 Gb

molecule phepyrFOH_neutral {
  symmetry C1
  0 1
  C      1.885   -1.036   -0.112
  C      0.807   -0.463   0.561
  C      5.266   -1.574   -0.130
  C      3.887   -3.449   -0.737
  C      1.800   -1.079   2.676
  C      6.304   -2.185   -0.815
  C      4.986   -3.976   -1.395
  C      2.921   -1.631   0.608
  C      4.038   -2.225   -0.095
  C      0.764   -0.484   1.955
  C      2.878   -1.652   2.002
  N      6.196   -3.373   -1.450
  O      -0.289   0.076   2.612
  F      3.866   -2.220   2.709
  H      1.904   -1.012   -1.199
  H      0.002   -0.002   -0.006
  H      5.423   -0.619   0.360
  H      2.943   -3.985   -0.732
  H      1.772   -1.099   3.762
  H      7.283   -1.720   -0.870
  H      4.920   -4.927   -1.912
  H      -0.175   -0.018   3.571
  units Angstrom
}

dih_string = "1 8 9 3 105"
set optking fixed_dihedral = $dih_string

optimize('MP2/aug-cc-PVTZ')
--------------------------------------------------------------------------

    Molecular point group: c1
  Charge       = 0
  Multiplicity = 1
  Basis Set: AUG-CC-PVTZ
    Blend: AUG-CC-PVTZ
  Basis Set: (AUG-CC-PVTZ AUX)
    Blend: AUG-CC-PVTZ-JKFIT
  @DF-RHF Final Energy:  -650.17259524102997
    Total Energy =                       -650.1725952410299669
  Basis Set: (AUG-CC-PVTZ AUX)
    Blend: AUG-CC-PVTZ-RI
    Molecular point group: c1
  Basis Set: AUG-CC-PVTZ
    Blend: AUG-CC-PVTZ
  Basis Set: (AUG-CC-PVTZ AUX)
    Blend: AUG-CC-PVTZ-JKFIT
  Basis Set: (AUG-CC-PVTZ AUX)
    Blend: AUG-CC-PVTZ-JKFIT
	 Reference Energy          =    -650.1725952410299669 [Eh]
	 Singles Energy            =      -0.0000000000000001 [Eh]
	 Same-Spin Energy          =      -0.6772224913392996 [Eh]
	 Opposite-Spin Energy      =      -2.0193206394307235 [Eh]
	 Correlation Energy        =      -2.6965431307700229 [Eh]
	 Total Energy              =    -652.8691383717999770 [Eh]
	 SCS Total Energy          =    -652.8215208387932762 [Eh]
  @DF-RHF Final Energy:  -650.17898839738029
    Total Energy =                       -650.1789883973801807
  @DF-RHF Final Energy:  -650.18079238173914
    Total Energy =                       -650.1807923817391384
  @DF-RHF Final Energy:  -650.18070609615074
    Total Energy =                       -650.1807060961507432
  @DF-RHF Final Energy:  -650.18059787163043
    Total Energy =                       -650.1805978716304253
  @DF-RHF Final Energy:  -650.18063287381199
    Total Energy =                       -650.1806328738121010
  @DF-RHF Final Energy:  -650.18062610404195
    Total Energy =                       -650.1806261040419486
  Charge       = 0
  Multiplicity = 1
  Basis Set: AUG-CC-PVTZ
    Blend: AUG-CC-PVTZ
  Basis Set: (AUG-CC-PVTZ AUX)
    Blend: AUG-CC-PVTZ-JKFIT

    Orbital Energies (a.u.)
    -----------------------

    Doubly Occupied:

       1A    -26.320872     2A    -20.609485     3A    -15.564089
       4A    -11.344813     5A    -11.325395     6A    -11.273154
       7A    -11.272657     8A    -11.267428     9A    -11.261990
      10A    -11.252473    11A    -11.250313    12A    -11.240338
      13A    -11.239035    14A    -11.238408    15A     -1.639278
      16A     -1.427228    17A     -1.260278    18A     -1.184479
      19A     -1.111978    20A     -1.042919    21A     -1.035469
      22A     -1.024015    23A     -0.892265    24A     -0.874616
      25A     -0.859211    26A     -0.827324    27A     -0.773248
      28A     -0.745636    29A     -0.726916    30A     -0.706901
      31A     -0.692962    32A     -0.668633    33A     -0.660856
      34A     -0.643788    35A     -0.636286    36A     -0.616965
      37A     -0.610275    38A     -0.598149    39A     -0.580694
      40A     -0.546324    41A     -0.541390    42A     -0.531558
      43A     -0.524966    44A     -0.495838    45A     -0.418861
      46A     -0.385312    47A     -0.361720    48A     -0.348267
      49A     -0.331285

  @DF-RHF Final Energy:  -650.18063474536984

   => Energetics <=

    Nuclear Repulsion Energy =            813.4004174362886488
    One-Electron Energy =               -2501.5894216334545490
    Two-Electron Energy =                1038.0083694517961703
    DFT Exchange-Correlation Energy =       0.0000000000000000
    Empirical Dispersion Energy =           0.0000000000000000
    PCM Polarization Energy =               0.0000000000000000
    EFP Energy =                            0.0000000000000000
    Total Energy =                       -650.1806347453698436
  Basis Set: (AUG-CC-PVTZ AUX)
    Blend: AUG-CC-PVTZ-RI
    Molecular point group: c1
  Basis Set: AUG-CC-PVTZ
    Blend: AUG-CC-PVTZ
  Basis Set: (AUG-CC-PVTZ AUX)
    Blend: AUG-CC-PVTZ-JKFIT
  Basis Set: (AUG-CC-PVTZ AUX)
    Blend: AUG-CC-PVTZ-JKFIT
	 Reference Energy          =    -650.1806347453698436 [Eh]
	 Singles Energy            =      -0.0000000000000000 [Eh]
	 Same-Spin Energy          =      -0.6761595578640456 [Eh]
	 Opposite-Spin Energy      =      -2.0164532289086261 [Eh]
	 Correlation Energy        =      -2.6926127867726715 [Eh]
	 Total Energy              =    -652.8732475321424999 [Eh]

	 ================> DF-SCS-MP2 Energies <==================
	-----------------------------------------------------------
	 SCS Same-Spin Scale       =       0.3333333333333333 [-]
	 SCS Opposite-Spin Scale   =       1.2000000000000000 [-]
	 SCS Same-Spin Energy      =      -0.2253865192880152 [Eh]
	 SCS Opposite-Spin Energy  =      -2.4197438746903512 [Eh]
	 SCS Correlation Energy    =      -2.6451303939783664 [Eh]
	 SCS Total Energy          =    -652.8257651393481638 [Eh]
	-----------------------------------------------------------

  -Total Gradient:
     Atom            X                  Y                   Z
    ------   -----------------  -----------------  -----------------
       1        0.000974834047     0.001756841274     0.000110182839
       2       -0.000001130874     0.000006960336    -0.000003587635
       3       -0.000511240661     0.000936615687    -0.001694094075
       4       -0.000025459724    -0.000034619812    -0.000018163510
       5       -0.000012556562    -0.000009753821    -0.000005240189
       6       -0.000008429580     0.000057022760    -0.000088575594
       7        0.000036877966    -0.000069605528     0.000078292123
       8       -0.001743980627    -0.002182843906    -0.001035238656
       9        0.001295109205    -0.000462423340     0.002594928476
      10        0.000026786043    -0.000007162145    -0.000019197211
      11        0.000033631490    -0.000013896086     0.000039291299
      12       -0.000010683681    -0.000001885983     0.000012024662
      13       -0.000018129462     0.000008639018     0.000003497912
      14       -0.000017582120    -0.000001284401     0.000014208187
      15        0.000004836134     0.000001681465    -0.000009936963
      16       -0.000000409131    -0.000002427768     0.000001187824
      17        0.000002529168     0.000003823920     0.000007873689
      18       -0.000004980528     0.000002975793    -0.000006924783
      19       -0.000001097315     0.000002731770     0.000002622717
      20        0.000010090305    -0.000002555825     0.000035575014
      21       -0.000026567177     0.000012040057    -0.000037316858
      22       -0.000002446922    -0.000000873468     0.000018590742

  **** Optimization is complete! (in 8 steps) ****
    Final optimized geometry and variables:
    Molecular point group: c1

    Geometry (in Angstrom), charge = 0, multiplicity = 1:

    C           -1.352327302162     0.716391262877    -0.756740793091
    C           -2.417901880251     1.304999254600    -0.099424874705
    C            2.079927225315     0.163750046124    -0.798533237710
    C            0.718928584729    -1.666310590456    -1.460414154677
    C           -1.407720114202     0.743862415433     2.007847883067
    C            3.119025450397    -0.417013770123    -1.508746138326
    C            1.814824744920    -2.169441258735    -2.145444366034
    C           -0.298708861669     0.123844368558    -0.063589761634
    C            0.845296865846    -0.472262610467    -0.761898944651
    C           -2.445919697425     1.317132995929     1.288053884702
    C           -0.359804049901     0.167882433493     1.318918728120
    N            3.004939662054    -1.566424308149    -2.178685657324
    O           -3.515269729797     1.906628782197     1.888031112732
    F            0.639602731732    -0.381442855695     2.032866151109
    H           -1.325424538072     0.711851915761    -1.836169825791
    H           -3.227707201099     1.761845923600    -0.645054425887
    H            2.227239694213     1.098269442071    -0.278593719179
    H           -0.220774383040    -2.198006068895    -1.464462419287
    H           -1.398529972048     0.735501621378     3.087092379901
    H            4.086681420227     0.063239738091    -1.545910938849
    H            1.734246773142    -3.098483839764    -2.692181770635
    H           -3.414526140803     1.849732857019     2.842946819207

*** Psi4 exiting successfully. Buy a developer a beer!
