                               Psi4 1.1 release

  ==> Input File <==

--------------------------------------------------------------------------

memory 1000 mb

molecule butane {
  symmetry C1
  0 1
  H      1.604   0.760   -8.260
  H      1.745   2.388   -8.880
  H      2.043   1.024   -9.930
  C      2.142   1.395   -8.932
  H      4.169   2.051   -9.210
  H      3.731   1.788   -7.539
  C      3.631   1.416   -8.537
  H      3.665   -0.647   -7.940
  H      4.104   -0.384   -9.610
  C      4.203   -0.012   -8.612
  H      6.208   -0.773   -8.733
  H      5.783   -0.138   -7.162
  H      6.118   0.953   -8.484
  C      5.691   0.009   -8.218
  units Angstrom
}

dih_string = "7 10 14 13 330"
set optking fixed_dihedral = $dih_string

optimize('MP2/aug-cc-pvtz')
--------------------------------------------------------------------------

    Molecular point group: c1
  Charge       = 0
  Multiplicity = 1
  Basis Set: AUG-CC-PVTZ
    Blend: AUG-CC-PVTZ
  Basis Set: (AUG-CC-PVTZ AUX)
    Blend: AUG-CC-PVTZ-JKFIT
  @DF-RHF Final Energy:  -157.35000985746873
    Total Energy =                       -157.3500098574687343
  Basis Set: (AUG-CC-PVTZ AUX)
    Blend: AUG-CC-PVTZ-RI
    Molecular point group: c1
  Basis Set: AUG-CC-PVTZ
    Blend: AUG-CC-PVTZ
  Basis Set: (AUG-CC-PVTZ AUX)
    Blend: AUG-CC-PVTZ-JKFIT
  Basis Set: (AUG-CC-PVTZ AUX)
    Blend: AUG-CC-PVTZ-JKFIT
	 Reference Energy          =    -157.3500098574687343 [Eh]
	 Singles Energy            =      -0.0000000000000000 [Eh]
	 Same-Spin Energy          =      -0.1654324061637728 [Eh]
	 Opposite-Spin Energy      =      -0.6391129709694504 [Eh]
	 Correlation Energy        =      -0.8045453771332232 [Eh]
	 Total Energy              =    -158.1545552346019576 [Eh]
	 SCS Total Energy          =    -158.1720895580199908 [Eh]
  @DF-RHF Final Energy:  -157.35277383497095
    Total Energy =                       -157.3527738349709466
  @DF-RHF Final Energy:  -157.35364594503213
    Total Energy =                       -157.3536459450321274
  @DF-RHF Final Energy:  -157.35396928282370
    Total Energy =                       -157.3539692828236980
  @DF-RHF Final Energy:  -157.35401158960019
    Total Energy =                       -157.3540115896001907
  Charge       = 0
  Multiplicity = 1
  Basis Set: AUG-CC-PVTZ
    Blend: AUG-CC-PVTZ
  Basis Set: (AUG-CC-PVTZ AUX)
    Blend: AUG-CC-PVTZ-JKFIT

    Orbital Energies (a.u.)
    -----------------------

    Doubly Occupied:

       1A    -11.211593     2A    -11.210835     3A    -11.205998
       4A    -11.205765     5A     -1.073764     6A     -0.981370
       7A     -0.861412     8A     -0.788585     9A     -0.639776
      10A     -0.585626    11A     -0.578043    12A     -0.567810
      13A     -0.513805    14A     -0.494506    15A     -0.470553
      16A     -0.459196    17A     -0.456373

  @DF-RHF Final Energy:  -157.35401571644945

   => Energetics <=

    Nuclear Repulsion Energy =            131.4514209398799380
    One-Electron Energy =                -471.0008537121910877
    Two-Electron Energy =                 182.1954170558616966
    DFT Exchange-Correlation Energy =       0.0000000000000000
    Empirical Dispersion Energy =           0.0000000000000000
    PCM Polarization Energy =               0.0000000000000000
    EFP Energy =                            0.0000000000000000
    Total Energy =                       -157.3540157164494531
  Basis Set: (AUG-CC-PVTZ AUX)
    Blend: AUG-CC-PVTZ-RI
    Molecular point group: c1
  Basis Set: AUG-CC-PVTZ
    Blend: AUG-CC-PVTZ
  Basis Set: (AUG-CC-PVTZ AUX)
    Blend: AUG-CC-PVTZ-JKFIT
  Basis Set: (AUG-CC-PVTZ AUX)
    Blend: AUG-CC-PVTZ-JKFIT
	 Reference Energy          =    -157.3540157164494531 [Eh]
	 Singles Energy            =      -0.0000000000000000 [Eh]
	 Same-Spin Energy          =      -0.1654706886597332 [Eh]
	 Opposite-Spin Energy      =      -0.6395328046255160 [Eh]
	 Correlation Energy        =      -0.8050034932852492 [Eh]
	 Total Energy              =    -158.1590192097347085 [Eh]

	 ================> DF-SCS-MP2 Energies <==================
	-----------------------------------------------------------
	 SCS Same-Spin Scale       =       0.3333333333333333 [-]
	 SCS Opposite-Spin Scale   =       1.2000000000000000 [-]
	 SCS Same-Spin Energy      =      -0.0551568962199111 [Eh]
	 SCS Opposite-Spin Energy  =      -0.7674393655506192 [Eh]
	 SCS Correlation Energy    =      -0.8225962617705302 [Eh]
	 SCS Total Energy          =    -158.1766119782199951 [Eh]
	-----------------------------------------------------------

  -Total Gradient:
     Atom            X                  Y                   Z
    ------   -----------------  -----------------  -----------------
       1        0.000009521733     0.000005922990    -0.000007550855
       2       -0.000000780492    -0.000015257367    -0.000001517346
       3       -0.000014232258     0.000003687576     0.000021070021
       4        0.000030322424     0.000003065075    -0.000037572932
       5       -0.000014302495     0.000003466165     0.000029734073
       6        0.000022304317     0.000005826247    -0.000014416619
       7        0.000611847231     0.000374723891    -0.002307830870
       8       -0.000018855368     0.000014743953    -0.000008878765
       9        0.000003758766    -0.000021621397     0.000043259461
      10       -0.001053391574    -0.000219566545     0.003961561646
      11        0.000013331233     0.000013039053    -0.000018602725
      12       -0.000010028237    -0.000007207234    -0.000054231997
      13       -0.000809970503     0.001194958553     0.003019184353
      14        0.001230475226    -0.001355780961    -0.004624207446

  **** Optimization is complete! (in 6 steps) ****
    Final optimized geometry and variables:
    Molecular point group: c1

    Geometry (in Angstrom), charge = 0, multiplicity = 1:

    H           -2.343947682166     0.085602877362     0.351994013303
    H           -2.190321824961     1.711803525532    -0.303395230818
    H           -1.930278830761     0.314148709904    -1.341125254359
    C           -1.775749468227     0.707027377026    -0.337693510303
    H            0.248395257144     1.348497710665    -0.659584948793
    H           -0.161723681530     1.104903026991     1.022306725116
    C           -0.301894353844     0.696356721051     0.019763839996
    H           -0.269658097231    -1.371421135609     0.586696253911
    H            0.198430606791    -1.061738719471    -1.065555850213
    C            0.304494105886    -0.692714750588    -0.044364157236
    H            2.322343509339    -1.520583261103    -0.113672278163
    H            1.873580209084    -0.829711555193     1.437414599362
    H            2.252498553353     0.232814845244     0.109553080289
    C            1.773206992640    -0.711871684796     0.360225173471

*** Psi4 exiting successfully. Buy a developer a beer!
