                               Psi4 1.1 release

  ==> Input File <==

--------------------------------------------------------------------------

memory 5 Gb

molecule phepyrOH_cation {
  symmetry C1
  1 1
  C      1.885   -1.036   -0.112
  C      2.878   -1.652   2.002
  C      0.807   -0.463   0.561
  C      1.800   -1.079   2.676
  C      4.322   -3.578   0.071
  C      4.835   -1.445   -0.924
  C      5.402   -4.121   -0.611
  C      5.902   -2.042   -1.581
  C      2.921   -1.631   0.608
  C      4.040   -2.225   -0.090
  C      0.764   -0.484   1.955
  N      6.152   -3.347   -1.407
  O      -0.288   0.076   2.612
  H      1.904   -1.012   -1.199
  H      3.678   -2.112   2.578
  H      0.003   -0.001   -0.006
  H      1.772   -1.098   3.762
  H      3.718   -4.211   0.715
  H      4.638   -0.387   -1.068
  H      5.694   -5.160   -0.546
  H      6.571   -1.515   -2.246
  H      6.941   -3.766   -1.898
  H      -0.175   -0.018   3.571
  units Angstrom
}

dih_string = "1 9 10 5 240"
set optking fixed_dihedral = $dih_string

optimize('MP2/aug-cc-PVTZ')
--------------------------------------------------------------------------

    Molecular point group: c1
  Charge       = 1
  Multiplicity = 1
  Basis Set: AUG-CC-PVTZ
    Blend: AUG-CC-PVTZ
  Basis Set: (AUG-CC-PVTZ AUX)
    Blend: AUG-CC-PVTZ-JKFIT
  @DF-RHF Final Energy:  -551.67304210895315
    Total Energy =                       -551.6730421089531546
  Basis Set: (AUG-CC-PVTZ AUX)
    Blend: AUG-CC-PVTZ-RI
    Molecular point group: c1
  Basis Set: AUG-CC-PVTZ
    Blend: AUG-CC-PVTZ
  Basis Set: (AUG-CC-PVTZ AUX)
    Blend: AUG-CC-PVTZ-JKFIT
  Basis Set: (AUG-CC-PVTZ AUX)
    Blend: AUG-CC-PVTZ-JKFIT
	 Reference Energy          =    -551.6730421089531546 [Eh]
	 Singles Energy            =      -0.0000000000000002 [Eh]
	 Same-Spin Energy          =      -0.5961488711455704 [Eh]
	 Opposite-Spin Energy      =      -1.8247716389944184 [Eh]
	 Correlation Energy        =      -2.4209205101399887 [Eh]
	 Total Energy              =    -554.0939626190931904 [Eh]
	 SCS Total Energy          =    -554.0614843661282976 [Eh]
  @DF-RHF Final Energy:  -551.67750385002853
    Total Energy =                       -551.6775038500285291
  @DF-RHF Final Energy:  -551.67847374227347
    Total Energy =                       -551.6784737422734679
  @DF-RHF Final Energy:  -551.67864372226404
    Total Energy =                       -551.6786437222640416
  @DF-RHF Final Energy:  -551.67870210562739
    Total Energy =                       -551.6787021056273943
  @DF-RHF Final Energy:  -551.67872337983874
    Total Energy =                       -551.6787233798387433
  @DF-RHF Final Energy:  -551.67870251873978
    Total Energy =                       -551.6787025187397830
  @DF-RHF Final Energy:  -551.67870492838347
    Total Energy =                       -551.6787049283834676
  @DF-RHF Final Energy:  -551.67868605798685
    Total Energy =                       -551.6786860579868517
  @DF-RHF Final Energy:  -551.67869612430923
    Total Energy =                       -551.6786961243092264
  @DF-RHF Final Energy:  -551.67869722056309
    Total Energy =                       -551.6786972205630946
  @DF-RHF Final Energy:  -551.67865626431785
    Total Energy =                       -551.6786562643178513
  @DF-RHF Final Energy:  -551.67852600487356
    Total Energy =                       -551.6785260048735609
  @DF-RHF Final Energy:  -551.67817573823311
    Total Energy =                       -551.6781757382331079
  @DF-RHF Final Energy:  -551.67854876060153
    Total Energy =                       -551.6785487606015295
  @DF-RHF Final Energy:  -551.67861832104791
    Total Energy =                       -551.6786183210479066
  @DF-RHF Final Energy:  -551.67858468284476
    Total Energy =                       -551.6785846828447575
  @DF-RHF Final Energy:  -551.67860396187302
    Total Energy =                       -551.6786039618730229
  Charge       = 1
  Multiplicity = 1
  Basis Set: AUG-CC-PVTZ
    Blend: AUG-CC-PVTZ
  Basis Set: (AUG-CC-PVTZ AUX)
    Blend: AUG-CC-PVTZ-JKFIT

    Orbital Energies (a.u.)
    -----------------------

    Doubly Occupied:

       1A    -20.700865     2A    -15.835869     3A    -11.484248
       4A    -11.484161     5A    -11.449644     6A    -11.426174
       7A    -11.414076     8A    -11.413372     9A    -11.373199
      10A    -11.371304    11A    -11.368764    12A    -11.351436
      13A    -11.344869    14A     -1.523503    15A     -1.512787
      16A     -1.318307    17A     -1.265045    18A     -1.241988
      19A     -1.154536    20A     -1.150169    21A     -1.065863
      22A     -1.057742    23A     -0.976015    24A     -0.965424
      25A     -0.949667    26A     -0.872286    27A     -0.860489
      28A     -0.854603    29A     -0.820071    30A     -0.802808
      31A     -0.788482    32A     -0.774320    33A     -0.753400
      34A     -0.730275    35A     -0.718700    36A     -0.707684
      37A     -0.704571    38A     -0.686781    39A     -0.655201
      40A     -0.624395    41A     -0.614097    42A     -0.571779
      43A     -0.541314    44A     -0.469015    45A     -0.435356

  @DF-RHF Final Energy:  -551.67858251113944

   => Energetics <=

    Nuclear Repulsion Energy =            713.5062665484848594
    One-Electron Energy =               -2150.0003864646009788
    Two-Electron Energy =                 884.8155374049767943
    DFT Exchange-Correlation Energy =       0.0000000000000000
    Empirical Dispersion Energy =           0.0000000000000000
    PCM Polarization Energy =               0.0000000000000000
    EFP Energy =                            0.0000000000000000
    Total Energy =                       -551.6785825111394388
  Basis Set: (AUG-CC-PVTZ AUX)
    Blend: AUG-CC-PVTZ-RI
    Molecular point group: c1
  Basis Set: AUG-CC-PVTZ
    Blend: AUG-CC-PVTZ
  Basis Set: (AUG-CC-PVTZ AUX)
    Blend: AUG-CC-PVTZ-JKFIT
  Basis Set: (AUG-CC-PVTZ AUX)
    Blend: AUG-CC-PVTZ-JKFIT
	 Reference Energy          =    -551.6785825111394388 [Eh]
	 Singles Energy            =      -0.0000000000000002 [Eh]
	 Same-Spin Energy          =      -0.5957763290781827 [Eh]
	 Opposite-Spin Energy      =      -1.8232966424956512 [Eh]
	 Correlation Energy        =      -2.4190729715738337 [Eh]
	 Total Energy              =    -554.0976554827133214 [Eh]

	 ================> DF-SCS-MP2 Energies <==================
	-----------------------------------------------------------
	 SCS Same-Spin Scale       =       0.3333333333333333 [-]
	 SCS Opposite-Spin Scale   =       1.2000000000000000 [-]
	 SCS Same-Spin Energy      =      -0.1985921096927276 [Eh]
	 SCS Opposite-Spin Energy  =      -2.1879559709947811 [Eh]
	 SCS Correlation Energy    =      -2.3865480806875086 [Eh]
	 SCS Total Energy          =    -554.0651305918269145 [Eh]
	-----------------------------------------------------------

  -Total Gradient:
     Atom            X                  Y                   Z
    ------   -----------------  -----------------  -----------------
       1       -0.003111159954    -0.005333482549    -0.000005556196
       2       -0.000064089782     0.000037766836    -0.000007102693
       3       -0.000050559099    -0.000102971257    -0.000063928133
       4       -0.000078051250    -0.000098692178    -0.000036423023
       5       -0.003757003757    -0.001347148551    -0.004888019402
       6        0.000030650129    -0.000078695924    -0.000041646759
       7       -0.000104719825    -0.000079183559    -0.000089320463
       8       -0.000090308985    -0.000030116289    -0.000124041897
       9        0.002871396848     0.007216367934    -0.002437525152
      10        0.004161228414    -0.000373071797     0.007466140765
      11        0.000075695640     0.000141140429     0.000091632276
      12        0.000070792468     0.000046837628     0.000074305441
      13       -0.000024233504    -0.000009354336    -0.000026108389
      14       -0.000012099396    -0.000025401844    -0.000025684943
      15       -0.000005067426    -0.000022054356     0.000008894469
      16       -0.000004481352     0.000023898464     0.000006270419
      17        0.000003332395     0.000017037951     0.000031778766
      18       -0.000013907310    -0.000011437451     0.000027053757
      19       -0.000005135460     0.000024203174    -0.000004596256
      20        0.000032648942    -0.000000838118     0.000029618678
      21        0.000047836207     0.000024338727     0.000008576082
      22        0.000037778438    -0.000015770785    -0.000023950391
      23       -0.000010542382    -0.000003372159     0.000029633050

  **** Optimization is complete! (in 19 steps) ****
    Final optimized geometry and variables:
    Molecular point group: c1

    Geometry (in Angstrom), charge = 1, multiplicity = 1:

    C           -1.188818695506     0.820329802858    -0.533176255189
    C           -0.300713573862     0.086623004773     1.581803265200
    C           -2.303286573809     1.322197419670     0.106764137443
    C           -1.403544130234     0.612969442875     2.227872885545
    C            1.230684277809    -1.767601170337    -0.325009623894
    C            1.687910261010     0.294735634992    -1.446625537126
    C            2.240366474917    -2.362557866902    -1.042373897860
    C            2.687504103903    -0.329193995586    -2.153212231711
    C           -0.164942957432     0.215574715466     0.199868028549
    C            0.945082550366    -0.409527289980    -0.494041489144
    C           -2.410311915223     1.232733320071     1.492064022852
    N            2.935442178934    -1.629445784123    -1.927300663225
    O           -3.517667003226     1.758209515346     2.048802070872
    H           -1.121191012070     0.881213391024    -1.609827131626
    H            0.475063352129    -0.393983807340     2.160313376492
    H           -3.106330053937     1.780820658105    -0.448299161266
    H           -1.484849558584     0.540464619082     3.302756123966
    H            0.655961753963    -2.362688798742     0.366394228354
    H            1.494551171655     1.340902391538    -1.622143214201
    H            2.506317357882    -3.402838439793    -0.955612673506
    H            3.303713247677     0.164358289129    -2.886226299183
    H            3.674163228611    -2.079227948846    -2.453330395652
    H           -3.499662923882     1.645178704468     3.005419991938

*** Psi4 exiting successfully. Buy a developer a beer!
