                              Psi4 1.0.0 Driver

  ==> Input File <==

--------------------------------------------------------------------------

memory 1000 mb

molecule butane {
  symmetry C1
  0 1
  H      1.604   0.760   -8.260
  H      1.745   2.388   -8.880
  H      2.043   1.024   -9.930
  C      2.142   1.395   -8.932
  H      4.169   2.051   -9.210
  H      3.731   1.788   -7.539
  C      3.631   1.416   -8.537
  H      5.237   0.003   -8.337
  H      3.665   -0.647   -7.940
  C      4.203   -0.012   -8.612
  H      4.459   -1.539   -10.100
  H      4.599   0.087   -10.721
  H      3.027   -0.564   -10.324
  C      4.061   -0.548   -10.048
  units Angstrom
}

dih_string = "4 7 10 14 60"
set optking fixed_dihedral = $dih_string

optimize('MP2/6-31G(d)')
--------------------------------------------------------------------------

    Molecular point group: c1
  Charge       = 0
  Multiplicity = 1
  Basis Set: 6-31G(D)
  Basis Set:
  @DF-RHF Final Energy:  -157.28972872190624
    Total Energy =                       -157.2897287219061582
  Basis Set:
    Molecular point group: c1
  Basis Set: 6-31G(D)
  Basis Set:
  Basis Set:
	 Reference Energy          =    -157.2897287219062434 [Eh]
	 Singles Energy            =      -0.0000000000000000 [Eh]
	 Same-Spin Energy          =      -0.1250582698165306 [Eh]
	 Opposite-Spin Energy      =      -0.4208578684060312 [Eh]
	 Correlation Energy        =      -0.5459161382225618 [Eh]
	 Total Energy              =    -157.8356448601288093 [Eh]
	 SCS Total Energy          =    -157.8364442539323136 [Eh]
  Basis Set: 6-31G(D)
  Basis Set:
  @DF-RHF Final Energy:  -157.29423474957974
    Total Energy =                       -157.2942347495797719
  Basis Set:
  Basis Set: 6-31G(D)
  Basis Set:
  @DF-RHF Final Energy:  -157.29541114166233
    Total Energy =                       -157.2954111416624414
  @DF-RHF Final Energy:  -157.29610128928724
    Total Energy =                       -157.2961012892873214
  @DF-RHF Final Energy:  -157.29619057584318
    Total Energy =                       -157.2961905758432408
  @DF-RHF Final Energy:  -157.29622090893272
    Total Energy =                       -157.2962209089322982
  @DF-RHF Final Energy:  -157.29621671697117
    Total Energy =                       -157.2962167169712302
	 Singles Energy            =      -0.0000000000000000 [Eh]
	 Same-Spin Energy          =      -0.1246795688456536 [Eh]
	 Opposite-Spin Energy      =      -0.4225054321696911 [Eh]
	 Correlation Energy        =      -0.5471850010153446 [Eh]
	 Total Energy              =    -157.8434017179865236 [Eh]
	 SCS Total Energy          =    -157.8447830918566979 [Eh]
  Charge       = 0
  Multiplicity = 1
  Basis Set: 6-31G(D)
  Basis Set:

    Orbital Energies (a.u.)
    -----------------------

    Doubly Occupied:

       1A    -11.216017     2A    -11.215421     3A    -11.209730
       4A    -11.209727     5A     -1.070497     6A     -0.974684
       7A     -0.872843     8A     -0.773611     9A     -0.624482
      10A     -0.618920    11A     -0.572081    12A     -0.532880
      13A     -0.531175    14A     -0.502717    15A     -0.459900
      16A     -0.458478    17A     -0.456281

  @DF-RHF Final Energy:  -157.29621402466930

   => Energetics <=

    Nuclear Repulsion Energy =            132.7926067305789104
    One-Electron Energy =                -473.5787554574307023
    Two-Electron Energy =                 183.4899347021823246
    DFT Exchange-Correlation Energy =       0.0000000000000000
    Empirical Dispersion Energy =           0.0000000000000000
    PCM Polarization Energy =               0.0000000000000000
    EFP Energy =                            0.0000000000000000
    Total Energy =                       -157.2962140246694958
  Basis Set:
    Molecular point group: c1
  Basis Set: 6-31G(D)
  Basis Set:
  Basis Set:
	 Reference Energy          =    -157.2962140246692968 [Eh]
	 Singles Energy            =      -0.0000000000000000 [Eh]
	 Same-Spin Energy          =      -0.1246805317539627 [Eh]
	 Opposite-Spin Energy      =      -0.4225059894518298 [Eh]
	 Correlation Energy        =      -0.5471865212057925 [Eh]
	 Total Energy              =    -157.8434005458750846 [Eh]

	 ================> DF-SCS-MP2 Energies <==================
	-----------------------------------------------------------
	 SCS Same-Spin Scale       =       0.3333333333333333 [-]
	 SCS Opposite-Spin Scale   =       1.2000000000000000 [-]
	 SCS Same-Spin Energy      =      -0.0415601772513209 [Eh]
	 SCS Opposite-Spin Energy  =      -0.5070071873421957 [Eh]
	 SCS Correlation Energy    =      -0.5485673645935166 [Eh]
	 SCS Total Energy          =    -157.8447813892628062 [Eh]
	-----------------------------------------------------------

  -Total Gradient:
     Atom            X                  Y                   Z
    ------   -----------------  -----------------  -----------------
       1        0.000001351717    -0.000001938325     0.000004511828
       2       -0.000002412269     0.000008427052    -0.000001884682
       3       -0.000012232289    -0.000004541901    -0.000010219863
       4        0.000139395263     0.000104878296    -0.000585218407
       5       -0.000018862975     0.000002880155    -0.000006905823
       6        0.000031837284    -0.000000040531     0.000011133264
       7       -0.000407723629    -0.000256028682     0.000872409125
       8        0.000005490777     0.000012807930     0.000030730939
       9       -0.000002727607    -0.000010248751    -0.000017245348
      10        0.000814963063     0.000395281700    -0.000415083460
      11        0.000001197797    -0.000009444555     0.000000159783
      12        0.000003226620     0.000003582674     0.000000868974
      13       -0.000008711237    -0.000002551070    -0.000013676266
      14       -0.000544792513    -0.000243063991     0.000130419936

  **** Optimization is complete! (in 8 steps) ****
    Final optimized geometry and variables:
    Molecular point group: c1

    Geometry (in Angstrom), charge = 0, multiplicity = 1:

    H           -1.957660051998     0.220563579990     0.754895612768
    H           -1.766656182790     1.920668094278     0.309287934215
    H           -1.545459625183     0.662809446992    -0.906433626867
    C           -1.372655169191     0.914256918997     0.142534726015
    H            0.674987759219     1.515798026479    -0.148347292586
    H            0.248131715149     1.211659002692     1.526380528486
    C            0.107517758456     0.840585048736     0.504475592824
    H            1.750332334656    -0.528680529120     0.718580176288
    H            0.187980843102    -1.220876520682     1.117757467557
    C            0.700899078786    -0.564307191672     0.403653621983
    H            1.125272430953    -2.139863024356    -1.029784153003
    H            1.088041396043    -0.517755700773    -1.731773428406
    H           -0.419634533471    -1.334383420229    -1.301041388680
    C            0.615861138546    -1.172892711132    -0.992673842151

*** Psi4 exiting successfully. Buy a developer a beer!
