                               Psi4 1.1 release

  ==> Input File <==

--------------------------------------------------------------------------

memory 5 Gb

molecule phepyrFOH_neutral {
  symmetry C1
  0 1
  C      1.885   -1.036   -0.112
  C      0.807   -0.463   0.561
  C      3.825   -3.269   -0.988
  C      5.328   -1.753   0.119
  C      1.800   -1.079   2.676
  C      4.927   -3.802   -1.637
  C      6.363   -2.354   -0.579
  C      2.921   -1.631   0.608
  C      4.038   -2.225   -0.095
  C      0.764   -0.484   1.955
  C      2.878   -1.652   2.002
  N      6.195   -3.370   -1.455
  O      -0.289   0.076   2.612
  F      3.866   -2.220   2.709
  H      1.904   -1.012   -1.199
  H      0.002   -0.002   -0.006
  H      2.833   -3.663   -1.183
  H      5.532   -0.940   0.809
  H      1.772   -1.099   3.762
  H      4.814   -4.616   -2.345
  H      7.387   -2.023   -0.446
  H      -0.074   0.196   3.551
  units Angstrom
}

dih_string = "2 10 13 22 195"
set optking fixed_dihedral = $dih_string

optimize('MP2/aug-cc-PVTZ')
--------------------------------------------------------------------------

    Molecular point group: c1
  Charge       = 0
  Multiplicity = 1
  Basis Set: AUG-CC-PVTZ
    Blend: AUG-CC-PVTZ
  Basis Set: (AUG-CC-PVTZ AUX)
    Blend: AUG-CC-PVTZ-JKFIT
  @DF-RHF Final Energy:  -650.17328545590090
    Total Energy =                       -650.1732854559008956
  Basis Set: (AUG-CC-PVTZ AUX)
    Blend: AUG-CC-PVTZ-RI
    Molecular point group: c1
  Basis Set: AUG-CC-PVTZ
    Blend: AUG-CC-PVTZ
  Basis Set: (AUG-CC-PVTZ AUX)
    Blend: AUG-CC-PVTZ-JKFIT
  Basis Set: (AUG-CC-PVTZ AUX)
    Blend: AUG-CC-PVTZ-JKFIT
	 Reference Energy          =    -650.1732854559008956 [Eh]
	 Singles Energy            =      -0.0000000000000001 [Eh]
	 Same-Spin Energy          =      -0.6774999924356462 [Eh]
	 Opposite-Spin Energy      =      -2.0193648010218492 [Eh]
	 Correlation Energy        =      -2.6968647934574954 [Eh]
	 Total Energy              =    -652.8701502493584030 [Eh]
	 SCS Total Energy          =    -652.8223565479389663 [Eh]
  @DF-RHF Final Energy:  -650.17953878340199
    Total Energy =                       -650.1795387834019948
  @DF-RHF Final Energy:  -650.18136066010766
    Total Energy =                       -650.1813606601076572
    Molecular point group: c1
  Charge       = 0
  Multiplicity = 1
  Basis Set: AUG-CC-PVTZ
    Blend: AUG-CC-PVTZ
  Basis Set: (AUG-CC-PVTZ AUX)
    Blend: AUG-CC-PVTZ-JKFIT

    Orbital Energies (a.u.)
    -----------------------

    Doubly Occupied:

       1A    -26.322465     2A    -20.609463     3A    -15.562858
       4A    -11.346365     5A    -11.326057     6A    -11.272567
       7A    -11.271712     8A    -11.267814     9A    -11.262597
      10A    -11.254220    11A    -11.251066    12A    -11.241271
      13A    -11.238698    14A    -11.237455    15A     -1.641293
      16A     -1.426983    17A     -1.259374    18A     -1.185247
      19A     -1.112185    20A     -1.044149    21A     -1.034659
      22A     -1.024126    23A     -0.893041    24A     -0.877367
      25A     -0.856306    26A     -0.828019    27A     -0.773697
      28A     -0.746571    29A     -0.726763    30A     -0.708769
      31A     -0.695004    32A     -0.666379    33A     -0.662757
      34A     -0.642303    35A     -0.636327    36A     -0.620951
      37A     -0.609157    38A     -0.597262    39A     -0.577562
      40A     -0.547683    41A     -0.541876    42A     -0.533600
      43A     -0.521859    44A     -0.497885    45A     -0.418148
      46A     -0.393191    47A     -0.361806    48A     -0.348143
      49A     -0.325740

  @DF-RHF Final Energy:  -650.18149574704205

   => Energetics <=

    Nuclear Repulsion Energy =            813.9629798757538310
    One-Electron Energy =               -2502.6873732034537170
    Two-Electron Energy =                1038.5428975806580638
    DFT Exchange-Correlation Energy =       0.0000000000000000
    Empirical Dispersion Energy =           0.0000000000000000
    PCM Polarization Energy =               0.0000000000000000
    EFP Energy =                            0.0000000000000000
    Total Energy =                       -650.1814957470419358
  Basis Set: (AUG-CC-PVTZ AUX)
    Blend: AUG-CC-PVTZ-RI
    Molecular point group: c1

    Geometry (in Angstrom), charge = 0, multiplicity = 1:

       Center              X                  Y                   Z               Mass
    ------------   -----------------  -----------------  -----------------  -----------------
           C         -1.360313760659     0.704447436143    -0.755702107275    12.000000000000
           C         -2.434689931094     1.277854675384    -0.099119829279    12.000000000000
           C          0.648481947214    -1.454368100419    -1.714623662347    12.000000000000
           C          2.157294326360    -0.035389693225    -0.552920257255    12.000000000000
           C         -1.403570738968     0.749850571257     2.006418330509    12.000000000000
           C          1.740466279161    -1.986674333610    -2.383085248193    12.000000000000
           C          3.185645230071    -0.628606537840    -1.267743143590    12.000000000000
           C         -0.282840025204     0.151707226967    -0.065808541173    12.000000000000
           C          0.848958684697    -0.451005555313    -0.773702015597    12.000000000000
           C         -2.457663684644     1.296556994651     1.287842260206    12.000000000000
           C         -0.342688358018     0.197771432690     1.319473376570    12.000000000000
           N          2.997714396098    -1.591691747954    -2.173770736663    14.003074004780
           O         -3.539021851581     1.861833209328     1.892102299266    15.994914619560
           F          0.660682822040    -0.335507955723     2.039134523098    18.998403224000
           H         -1.339961914109     0.692621766378    -1.835347514554     1.007825032070
           H         -3.255181318062     1.713333904240    -0.645968329448     1.007825032070
           H         -0.347448844769    -1.818040588347    -1.919287019687     1.007825032070
           H          2.369402081284     0.742257120500     0.164787186674     1.007825032070
           H         -1.398308719361     0.739873710736     3.085617530394     1.007825032070
           H          1.600314593031    -2.769351636561    -3.115824502924     1.007825032070
           H          4.207828990780    -0.314708685675    -1.109629184703     1.007825032070
           H         -3.336649746773     2.023217509905     2.818469783796     1.007825032070

  Basis Set: AUG-CC-PVTZ
    Blend: AUG-CC-PVTZ
  Basis Set: (AUG-CC-PVTZ AUX)
    Blend: AUG-CC-PVTZ-JKFIT
  Basis Set: (AUG-CC-PVTZ AUX)
    Blend: AUG-CC-PVTZ-JKFIT
	 Reference Energy          =    -650.1814957470420495 [Eh]
	 Singles Energy            =      -0.0000000000000006 [Eh]
	 Same-Spin Energy          =      -0.6764937871938932 [Eh]
	 Opposite-Spin Energy      =      -2.0166243585155499 [Eh]
	 Correlation Energy        =      -2.6931181457094433 [Eh]
	 Total Energy              =    -652.8746138927515403 [Eh]

	 ================> DF-SCS-MP2 Energies <==================
	-----------------------------------------------------------
	 SCS Same-Spin Scale       =       0.3333333333333333 [-]
	 SCS Opposite-Spin Scale   =       1.2000000000000000 [-]
	 SCS Same-Spin Energy      =      -0.2254979290646311 [Eh]
	 SCS Opposite-Spin Energy  =      -2.4199492302186596 [Eh]
	 SCS Correlation Energy    =      -2.6454471592832909 [Eh]
	 SCS Total Energy          =    -652.8269429063253710 [Eh]
	-----------------------------------------------------------

  -Total Gradient:
     Atom            X                  Y                   Z
    ------   -----------------  -----------------  -----------------
       1        0.001212442338     0.000960757655     0.000037539685
       2        0.000169095291     0.001673671939     0.000377051211
       3        0.000141660189    -0.000905806984     0.001187433025
       4       -0.000033272825     0.000816197397    -0.001127930117
       5        0.000666171705    -0.000575819485    -0.000037917421
       6        0.000253102405    -0.000122214634    -0.000091592205
       7        0.000287819354     0.000055939466     0.000086286442
       8       -0.001376405627     0.000644037318    -0.000407012701
       9        0.000697098750    -0.000342002407    -0.000648491910
      10       -0.000733761166    -0.001410579108    -0.000410851488
      11       -0.000057190604    -0.001351540599     0.001294364700
      12       -0.000334131483    -0.000050638398     0.000031479310
      13       -0.000690319973    -0.001416141341     0.000487507176
      14       -0.000586619340     0.000138014917    -0.000047410449
      15       -0.000145597212    -0.000101985670    -0.000021741969
      16        0.000033692841    -0.000171903144    -0.000129594315
      17       -0.000055015847     0.000168999626    -0.000212018298
      18       -0.000007134569     0.000188553376     0.000072729773
      19       -0.000154964299     0.000240729080     0.000023224902
      20       -0.000006792601    -0.000137230059    -0.000102688692
      21        0.000043193083     0.000015659560     0.000003091926
      22        0.000676929586     0.001683301508    -0.000363458570

*** Psi4 exiting successfully. Buy a developer a beer!
