                               Psi4 1.1 release

  ==> Input File <==

--------------------------------------------------------------------------

memory 1000 mb

molecule butane {
  symmetry C1
  0 1
  H      2.013   0.870   -7.234
  H      1.736   2.345   -8.129
  H      1.611   0.799   -8.932
  C      2.133   1.352   -8.181
  H      3.751   1.898   -9.485
  H      4.154   1.970   -7.786
  C      3.631   1.416   -8.537
  H      3.665   -0.647   -7.940
  H      4.104   -0.384   -9.610
  C      4.203   -0.012   -8.612
  H      6.088   -0.983   -8.270
  H      5.791   0.381   -7.220
  H      6.230   0.644   -8.890
  C      5.691   0.009   -8.218
  units Angstrom
}

dih_string = "14 10 7 4 210"
set optking fixed_dihedral = $dih_string

optimize('MP2/aug-cc-pvtz')
--------------------------------------------------------------------------

    Molecular point group: c1
  Charge       = 0
  Multiplicity = 1
  Basis Set: AUG-CC-PVTZ
    Blend: AUG-CC-PVTZ
  Basis Set: (AUG-CC-PVTZ AUX)
    Blend: AUG-CC-PVTZ-JKFIT
  @DF-RHF Final Energy:  -157.34974436704653
    Total Energy =                       -157.3497443670465259
  Basis Set: (AUG-CC-PVTZ AUX)
    Blend: AUG-CC-PVTZ-RI
    Molecular point group: c1
  Basis Set: AUG-CC-PVTZ
    Blend: AUG-CC-PVTZ
  Basis Set: (AUG-CC-PVTZ AUX)
    Blend: AUG-CC-PVTZ-JKFIT
  Basis Set: (AUG-CC-PVTZ AUX)
    Blend: AUG-CC-PVTZ-JKFIT
	 Reference Energy          =    -157.3497443670465259 [Eh]
	 Singles Energy            =      -0.0000000000000000 [Eh]
	 Same-Spin Energy          =      -0.1654511569701084 [Eh]
	 Opposite-Spin Energy      =      -0.6392753174064377 [Eh]
	 Correlation Energy        =      -0.8047264743765461 [Eh]
	 Total Energy              =    -158.1544708414230627 [Eh]
	 SCS Total Energy          =    -158.1720251335909495 [Eh]
  @DF-RHF Final Energy:  -157.35244653521886
    Total Energy =                       -157.3524465352188599
  @DF-RHF Final Energy:  -157.35331348773386
    Total Energy =                       -157.3533134877338568
  @DF-RHF Final Energy:  -157.35364741891672
    Total Energy =                       -157.3536474189167222
  @DF-RHF Final Energy:  -157.35370529712424
    Total Energy =                       -157.3537052971242360
  @DF-RHF Final Energy:  -157.35371602398314
    Total Energy =                       -157.3537160239831394
  @DF-RHF Final Energy:  -157.35370314924461
    Total Energy =                       -157.3537031492446090
  Charge       = 0
  Multiplicity = 1
  Basis Set: AUG-CC-PVTZ
    Blend: AUG-CC-PVTZ
  Basis Set: (AUG-CC-PVTZ AUX)
    Blend: AUG-CC-PVTZ-JKFIT

    Orbital Energies (a.u.)
    -----------------------

    Doubly Occupied:

       1A    -11.211289     2A    -11.210672     3A    -11.206367
       4A    -11.206360     5A     -1.073095     6A     -0.982259
       7A     -0.860867     8A     -0.788197     9A     -0.638623
      10A     -0.584947    11A     -0.584544    12A     -0.562743
      13A     -0.513045    14A     -0.499833    15A     -0.466480
      16A     -0.459213    17A     -0.456185

  @DF-RHF Final Energy:  -157.35370599373380

   => Energetics <=

    Nuclear Repulsion Energy =            131.5362558315117099
    One-Electron Energy =                -471.1704868052341908
    Two-Electron Energy =                 182.2805249799886838
    DFT Exchange-Correlation Energy =       0.0000000000000000
    Empirical Dispersion Energy =           0.0000000000000000
    PCM Polarization Energy =               0.0000000000000000
    EFP Energy =                            0.0000000000000000
    Total Energy =                       -157.3537059937337972
  Basis Set: (AUG-CC-PVTZ AUX)
    Blend: AUG-CC-PVTZ-RI
    Molecular point group: c1
  Basis Set: AUG-CC-PVTZ
    Blend: AUG-CC-PVTZ
  Basis Set: (AUG-CC-PVTZ AUX)
    Blend: AUG-CC-PVTZ-JKFIT
  Basis Set: (AUG-CC-PVTZ AUX)
    Blend: AUG-CC-PVTZ-JKFIT
	 Reference Energy          =    -157.3537059937337972 [Eh]
	 Singles Energy            =      -0.0000000000000001 [Eh]
	 Same-Spin Energy          =      -0.1654392097857981 [Eh]
	 Opposite-Spin Energy      =      -0.6396695961962062 [Eh]
	 Correlation Energy        =      -0.8051088059820044 [Eh]
	 Total Energy              =    -158.1588147997157989 [Eh]

	 ================> DF-SCS-MP2 Energies <==================
	-----------------------------------------------------------
	 SCS Same-Spin Scale       =       0.3333333333333333 [-]
	 SCS Opposite-Spin Scale   =       1.2000000000000000 [-]
	 SCS Same-Spin Energy      =      -0.0551464032619327 [Eh]
	 SCS Opposite-Spin Energy  =      -0.7676035154354475 [Eh]
	 SCS Correlation Energy    =      -0.8227499186973802 [Eh]
	 SCS Total Energy          =    -158.1764559124311802 [Eh]
	-----------------------------------------------------------

  -Total Gradient:
     Atom            X                  Y                   Z
    ------   -----------------  -----------------  -----------------
       1       -0.000000689289     0.000001088984    -0.000004307006
       2       -0.000001102960    -0.000003848273    -0.000000515232
       3       -0.000005398263     0.000000931112     0.000004841746
       4        0.000631309558     0.000150508373     0.002664687186
       5        0.000009500579     0.000007686363     0.000008892483
       6       -0.000004451885     0.000004954225    -0.000010611009
       7       -0.001134196549    -0.000377215285    -0.002678938081
       8        0.000004995371    -0.000003654624    -0.000010931282
       9       -0.000009285638    -0.000008465406     0.000007791636
      10        0.001177809462     0.000665960816    -0.002602584704
      11        0.000001377805     0.000004098503     0.000000131771
      12        0.000001078536    -0.000000812763    -0.000004378750
      13        0.000005775383    -0.000001561100     0.000004834138
      14       -0.000676722112    -0.000439670927     0.002621087102

  **** Optimization is complete! (in 8 steps) ****
    Final optimized geometry and variables:
    Molecular point group: c1

    Geometry (in Angstrom), charge = 0, multiplicity = 1:

    H           -1.936852914965     0.211375851848     1.172156147991
    H           -2.227576427508     1.657810163195     0.209794894414
    H           -2.341360565883     0.066206511832    -0.532578784481
    C           -1.789742857756     0.662304593539     0.192868623194
    H           -0.155989785294     1.228612111828    -1.092535416392
    H            0.208521041692     1.284758751076     0.612842083559
    C           -0.312310080640     0.703779154718    -0.150290777325
    H           -0.217288972735    -1.343727728371     0.465656908136
    H            0.174775562366    -1.102309539711    -1.217298829015
    C            0.315330637061    -0.683472917190    -0.221040470462
    H            2.225346909545    -1.672778359480     0.063897401552
    H            1.917782889995    -0.339626533614     1.173370932140
    H            2.349751715642    -0.009832121934    -0.498591279022
    C            1.786965065149    -0.680972200509     0.148503844773

*** Psi4 exiting successfully. Buy a developer a beer!
