                               Psi4 1.1 release

  ==> Input File <==

--------------------------------------------------------------------------

memory 5 Gb

molecule phepyrOH_anion {
  symmetry C1
  -1 1
  C      1.885   -1.036   -0.112
  C      2.878   -1.652   2.002
  C      0.807   -0.463   0.561
  C      1.800   -1.079   2.676
  C      5.340   -1.985   0.341
  C      3.819   -3.042   -1.194
  C      6.376   -2.580   -0.361
  C      4.924   -3.588   -1.827
  C      2.921   -1.631   0.608
  C      4.040   -2.226   -0.090
  C      0.764   -0.484   1.955
  N      6.201   -3.378   -1.438
  O      -0.227   0.042   2.574
  H      1.904   -1.011   -1.199
  H      3.678   -2.112   2.577
  H      0.011   -0.006   -0.025
  H      1.791   -1.108   3.764
  H      5.551   -1.355   1.199
  H      2.819   -3.251   -1.560
  H      7.408   -2.425   -0.064
  H      4.805   -4.231   -2.694
  units Angstrom
}

dih_string = "1 9 10 5 135"
set optking fixed_dihedral = $dih_string

optimize('MP2/aug-cc-PVTZ')
--------------------------------------------------------------------------

    Molecular point group: c1
  Charge       = -1
  Multiplicity = 1
  Basis Set: AUG-CC-PVTZ
    Blend: AUG-CC-PVTZ
  Basis Set: (AUG-CC-PVTZ AUX)
    Blend: AUG-CC-PVTZ-JKFIT
  @DF-RHF Final Energy:  -550.71502592745344
    Total Energy =                       -550.7150259274534392
  Basis Set: (AUG-CC-PVTZ AUX)
    Blend: AUG-CC-PVTZ-RI
    Molecular point group: c1
  Basis Set: AUG-CC-PVTZ
    Blend: AUG-CC-PVTZ
  Basis Set: (AUG-CC-PVTZ AUX)
    Blend: AUG-CC-PVTZ-JKFIT
  Basis Set: (AUG-CC-PVTZ AUX)
    Blend: AUG-CC-PVTZ-JKFIT
	 Reference Energy          =    -550.7150259274534392 [Eh]
	 Singles Energy            =      -0.0000000000000001 [Eh]
	 Same-Spin Energy          =      -0.6137395414079027 [Eh]
	 Opposite-Spin Energy      =      -1.8379686296445406 [Eh]
	 Correlation Energy        =      -2.4517081710524433 [Eh]
	 Total Energy              =    -553.1667340985059127 [Eh]
	 SCS Total Energy          =    -553.1251681301628196 [Eh]
  @DF-RHF Final Energy:  -550.72163178167159
    Total Energy =                       -550.7216317816715900
  @DF-RHF Final Energy:  -550.72570998051185
    Total Energy =                       -550.7257099805118514
  @DF-RHF Final Energy:  -550.72724883968647
    Total Energy =                       -550.7272488396864674
  @DF-RHF Final Energy:  -550.72756237924136
    Total Energy =                       -550.7275623792413626
  @DF-RHF Final Energy:  -550.72765884639534
    Total Energy =                       -550.7276588463953431
  @DF-RHF Final Energy:  -550.72768214386201
    Total Energy =                       -550.7276821438620118
  @DF-RHF Final Energy:  -550.72769295912008
    Total Energy =                       -550.7276929591200769
  @DF-RHF Final Energy:  -550.72767998036579
    Total Energy =                       -550.7276799803657923
  @DF-RHF Final Energy:  -550.72767604885917
    Total Energy =                       -550.7276760488591663
  Charge       = -1
  Multiplicity = 1
  Basis Set: AUG-CC-PVTZ
    Blend: AUG-CC-PVTZ
  Basis Set: (AUG-CC-PVTZ AUX)
    Blend: AUG-CC-PVTZ-JKFIT

    Orbital Energies (a.u.)
    -----------------------

    Doubly Occupied:

       1A    -20.316798     2A    -15.448160     3A    -11.163892
       4A    -11.163845     5A    -11.146004     6A    -11.131321
       7A    -11.117129     8A    -11.116898     9A    -11.100337
      10A    -11.099706    11A    -11.075757    12A    -11.061644
      13A    -11.061216    14A     -1.147501    15A     -1.144911
      16A     -1.016939    17A     -0.957759    18A     -0.920426
      19A     -0.866946    20A     -0.838135    21A     -0.744214
      22A     -0.734828    23A     -0.674921    24A     -0.650399
      25A     -0.596091    26A     -0.551294    27A     -0.538816
      28A     -0.511712    29A     -0.487380    30A     -0.482306
      31A     -0.481275    32A     -0.437278    33A     -0.431365
      34A     -0.420076    35A     -0.401091    36A     -0.378940
      37A     -0.373438    38A     -0.348275    39A     -0.312708
      40A     -0.309949    41A     -0.250954    42A     -0.239809
      43A     -0.223637    44A     -0.201212    45A     -0.107804

  @DF-RHF Final Energy:  -550.72766782121789

   => Energetics <=

    Nuclear Repulsion Energy =            682.5083297341448088
    One-Electron Energy =               -2114.9018089879164108
    Two-Electron Energy =                 881.6658114325537099
    DFT Exchange-Correlation Energy =       0.0000000000000000
    Empirical Dispersion Energy =           0.0000000000000000
    PCM Polarization Energy =               0.0000000000000000
    EFP Energy =                            0.0000000000000000
    Total Energy =                       -550.7276678212178922
  Basis Set: (AUG-CC-PVTZ AUX)
    Blend: AUG-CC-PVTZ-RI
    Molecular point group: c1
  Basis Set: AUG-CC-PVTZ
    Blend: AUG-CC-PVTZ
  Basis Set: (AUG-CC-PVTZ AUX)
    Blend: AUG-CC-PVTZ-JKFIT
  Basis Set: (AUG-CC-PVTZ AUX)
    Blend: AUG-CC-PVTZ-JKFIT
	 Reference Energy          =    -550.7276678212178922 [Eh]
	 Singles Energy            =      -0.0000000000000004 [Eh]
	 Same-Spin Energy          =      -0.6125134852290881 [Eh]
	 Opposite-Spin Energy      =      -1.8365382849992702 [Eh]
	 Correlation Energy        =      -2.4490517702283587 [Eh]
	 Total Energy              =    -553.1767195914462718 [Eh]

	 ================> DF-SCS-MP2 Energies <==================
	-----------------------------------------------------------
	 SCS Same-Spin Scale       =       0.3333333333333333 [-]
	 SCS Opposite-Spin Scale   =       1.2000000000000000 [-]
	 SCS Same-Spin Energy      =      -0.2041711617430294 [Eh]
	 SCS Opposite-Spin Energy  =      -2.2038459419991243 [Eh]
	 SCS Correlation Energy    =      -2.4080171037421541 [Eh]
	 SCS Total Energy          =    -553.1356849249600600 [Eh]
	-----------------------------------------------------------

  -Total Gradient:
     Atom            X                  Y                   Z
    ------   -----------------  -----------------  -----------------
       1        0.002381920578     0.004470994894     0.000196556202
       2        0.000019197181     0.000016928020     0.000028849908
       3        0.000033850339    -0.000014917530    -0.000032668842
       4        0.000017639844    -0.000024409547    -0.000031584948
       5        0.000245261958     0.004164397615    -0.003042380963
       6       -0.000000947738     0.000025514302    -0.000026570335
       7        0.000004514355     0.000019932297    -0.000008074302
       8        0.000020116393    -0.000009759445     0.000024127478
       9       -0.003439575465    -0.004532765619    -0.001924386568
      10        0.000790375320    -0.004133094351     0.004775878730
      11       -0.000046173679     0.000009417509     0.000042935918
      12       -0.000004596866    -0.000021023315    -0.000010705904
      13        0.000007562183     0.000008287229    -0.000000682991
      14        0.000001492219     0.000000678117    -0.000015138909
      15        0.000010938364     0.000006522463     0.000004013386
      16       -0.000015677625    -0.000001775559     0.000003530899
      17       -0.000009919339    -0.000001140915     0.000021897196
      18       -0.000002771717     0.000009166138     0.000019626001
      19       -0.000016687134     0.000012076400    -0.000006605809
      20        0.000000917478    -0.000003744367    -0.000000323955
      21        0.000002563342    -0.000001284330    -0.000018292187

  **** Optimization is complete! (in 11 steps) ****
    Final optimized geometry and variables:
    Molecular point group: c1

    Geometry (in Angstrom), charge = -1, multiplicity = 1:

    C           -1.339016767385     0.616570334887    -0.533519955053
    C           -0.305302102457     0.143458878354     1.567737297708
    C           -2.373268636640     1.256736942422     0.113021831969
    C           -1.345087900199     0.761102367425     2.226739883822
    C            2.172466258331    -0.332559421681    -0.106525697823
    C            0.717539518904    -1.282884821631    -1.702985294223
    C            3.229192366761    -0.861328641435    -0.826200715434
    C            1.833858606207    -1.760891344967    -2.365567426675
    C           -0.279635175383     0.023359831910     0.169918637952
    C            0.851387478049    -0.548742217875    -0.517978801154
    C           -2.455604387814     1.361988956914     1.542642206786
    N            3.093824718460    -1.573732566527    -1.952163696999
    O           -3.409638643492     1.935161869690     2.141459867668
    H           -1.323857447326     0.597014271952    -1.617149656788
    H            0.497984869832    -0.299473911389     2.145486928761
    H           -3.164038839921     1.723693385699    -0.458921355856
    H           -1.352726823527     0.806747184958     3.307695419930
    H            2.366798517552     0.264411512728     0.772378448217
    H           -0.268316486070    -1.495491091954    -2.090282125366
    H            4.245053185247    -0.687757703626    -0.493829224705
    H            1.713335463637    -2.335369048669    -3.275554889120

*** Psi4 exiting successfully. Buy a developer a beer!
