                               Psi4 1.1 release

  ==> Input File <==

--------------------------------------------------------------------------

memory 5 Gb

molecule phepyrFOH_neutral {
  symmetry C1
  0 1
  C      1.885   -1.036   -0.112
  C      0.807   -0.463   0.561
  C      3.825   -3.269   -0.988
  C      5.328   -1.753   0.120
  C      1.800   -1.079   2.676
  C      4.927   -3.802   -1.637
  C      6.363   -2.354   -0.579
  C      2.921   -1.631   0.608
  C      4.038   -2.225   -0.095
  C      0.764   -0.484   1.955
  C      2.878   -1.652   2.002
  N      6.195   -3.370   -1.455
  O      -0.289   0.076   2.612
  F      3.866   -2.220   2.709
  H      1.904   -1.012   -1.199
  H      0.002   -0.002   -0.006
  H      2.833   -3.663   -1.183
  H      5.532   -0.940   0.810
  H      1.772   -1.099   3.762
  H      4.814   -4.616   -2.345
  H      7.387   -2.023   -0.446
  H      -0.175   -0.018   3.571
  units Angstrom
}

dih_string = "1 8 9 3 300"
set optking fixed_dihedral = $dih_string

optimize('MP2/aug-cc-PVTZ')
--------------------------------------------------------------------------

    Molecular point group: c1
  Charge       = 0
  Multiplicity = 1
  Basis Set: AUG-CC-PVTZ
    Blend: AUG-CC-PVTZ
  Basis Set: (AUG-CC-PVTZ AUX)
    Blend: AUG-CC-PVTZ-JKFIT
  @DF-RHF Final Energy:  -650.17356779426200
    Total Energy =                       -650.1735677942619986
  Basis Set: (AUG-CC-PVTZ AUX)
    Blend: AUG-CC-PVTZ-RI
    Molecular point group: c1
  Basis Set: AUG-CC-PVTZ
    Blend: AUG-CC-PVTZ
  Basis Set: (AUG-CC-PVTZ AUX)
    Blend: AUG-CC-PVTZ-JKFIT
  Basis Set: (AUG-CC-PVTZ AUX)
    Blend: AUG-CC-PVTZ-JKFIT
	 Reference Energy          =    -650.1735677942619986 [Eh]
	 Singles Energy            =      -0.0000000000000001 [Eh]
	 Same-Spin Energy          =      -0.6775265545727474 [Eh]
	 Opposite-Spin Energy      =      -2.0194595129749753 [Eh]
	 Correlation Energy        =      -2.6969860675477229 [Eh]
	 Total Energy              =    -652.8705538618097535 [Eh]
	 SCS Total Energy          =    -652.8227613946895644 [Eh]
  @DF-RHF Final Energy:  -650.17985790414912
    Total Energy =                       -650.1798579041492303
  @DF-RHF Final Energy:  -650.18165191953960
    Total Energy =                       -650.1816519195397177
  @DF-RHF Final Energy:  -650.18154757324805
    Total Energy =                       -650.1815475732480536
  @DF-RHF Final Energy:  -650.18144296764217
    Total Energy =                       -650.1814429676421696
  @DF-RHF Final Energy:  -650.18147480896778
    Total Energy =                       -650.1814748089677778
  Charge       = 0
  Multiplicity = 1
  Basis Set: AUG-CC-PVTZ
    Blend: AUG-CC-PVTZ
  Basis Set: (AUG-CC-PVTZ AUX)
    Blend: AUG-CC-PVTZ-JKFIT

    Orbital Energies (a.u.)
    -----------------------

    Doubly Occupied:

       1A    -26.321931     2A    -20.610437     3A    -15.562923
       4A    -11.346086     5A    -11.326468     6A    -11.272409
       7A    -11.271609     8A    -11.267343     9A    -11.262572
      10A    -11.253358    11A    -11.251010    12A    -11.240969
      13A    -11.238564    14A    -11.237347    15A     -1.640484
      16A     -1.428246    17A     -1.259377    18A     -1.185239
      19A     -1.112241    20A     -1.043962    21A     -1.034646
      22A     -1.024219    23A     -0.893222    24A     -0.877025
      25A     -0.856710    26A     -0.827797    27A     -0.773970
      28A     -0.746628    29A     -0.726781    30A     -0.708245
      31A     -0.694311    32A     -0.666468    33A     -0.662195
      34A     -0.642721    35A     -0.636331    36A     -0.617283
      37A     -0.611103    38A     -0.597273    39A     -0.581124
      40A     -0.547447    41A     -0.541573    42A     -0.534180
      43A     -0.521911    44A     -0.497605    45A     -0.418211
      46A     -0.391699    47A     -0.361808    48A     -0.347965
      49A     -0.326132

  @DF-RHF Final Energy:  -650.18145896658552

   => Energetics <=

    Nuclear Repulsion Energy =            814.2279431386442639
    One-Electron Energy =               -2503.2204825788730886
    Two-Electron Energy =                1038.8110804736434147
    DFT Exchange-Correlation Energy =       0.0000000000000000
    Empirical Dispersion Energy =           0.0000000000000000
    PCM Polarization Energy =               0.0000000000000000
    EFP Energy =                            0.0000000000000000
    Total Energy =                       -650.1814589665855237
  Basis Set: (AUG-CC-PVTZ AUX)
    Blend: AUG-CC-PVTZ-RI
    Molecular point group: c1
  Basis Set: AUG-CC-PVTZ
    Blend: AUG-CC-PVTZ
  Basis Set: (AUG-CC-PVTZ AUX)
    Blend: AUG-CC-PVTZ-JKFIT
  Basis Set: (AUG-CC-PVTZ AUX)
    Blend: AUG-CC-PVTZ-JKFIT
	 Reference Energy          =    -650.1814589665855237 [Eh]
	 Singles Energy            =      -0.0000000000000000 [Eh]
	 Same-Spin Energy          =      -0.6764898296857917 [Eh]
	 Opposite-Spin Energy      =      -2.0166862392055727 [Eh]
	 Correlation Energy        =      -2.6931760688913644 [Eh]
	 Total Energy              =    -652.8746350354768992 [Eh]

	 ================> DF-SCS-MP2 Energies <==================
	-----------------------------------------------------------
	 SCS Same-Spin Scale       =       0.3333333333333333 [-]
	 SCS Opposite-Spin Scale   =       1.2000000000000000 [-]
	 SCS Same-Spin Energy      =      -0.2254966098952639 [Eh]
	 SCS Opposite-Spin Energy  =      -2.4200234870466870 [Eh]
	 SCS Correlation Energy    =      -2.6455200969419508 [Eh]
	 SCS Total Energy          =    -652.8269790635274603 [Eh]
	-----------------------------------------------------------

  -Total Gradient:
     Atom            X                  Y                   Z
    ------   -----------------  -----------------  -----------------
       1        0.001271987073     0.002297865918     0.000149589348
       2       -0.000045086063     0.000017088898     0.000004451671
       3        0.000309424096    -0.001754180825     0.001955193173
       4        0.000007599398     0.000003238752    -0.000023695148
       5        0.000031725234    -0.000005045988     0.000021501825
       6        0.000066519030     0.000102800750    -0.000099503726
       7        0.000020005746    -0.000107792191     0.000045727369
       8       -0.001748846299    -0.004322170462     0.000660031450
       9        0.000144011216     0.003766139989    -0.002790537601
      10       -0.000001456912    -0.000025632598    -0.000021850913
      11        0.000039844427    -0.000000486619     0.000083578232
      12       -0.000024989979    -0.000015473903     0.000009941079
      13       -0.000019775283     0.000021765530    -0.000014620283
      14       -0.000019352666     0.000003366863    -0.000003814698
      15        0.000007259286     0.000005345330    -0.000015123842
      16        0.000000920819     0.000003799338    -0.000002170983
      17       -0.000011669128    -0.000007891847     0.000018421888
      18       -0.000013619668     0.000017054290     0.000012498386
      19       -0.000009876466     0.000004214104    -0.000005512138
      20       -0.000000521858    -0.000027705904     0.000035550303
      21       -0.000013239284     0.000028774758    -0.000030143196
      22        0.000009137265    -0.000005074169     0.000010487800

  **** Optimization is complete! (in 7 steps) ****
    Final optimized geometry and variables:
    Molecular point group: c1

    Geometry (in Angstrom), charge = 0, multiplicity = 1:

    C           -1.359001797956     0.732170151682    -0.757832979337
    C           -2.424859452336     1.310542802232    -0.093144233639
    C            0.659273336872    -1.477132091822    -1.702501769534
    C            2.140249178954    -0.009107022180    -0.566664332566
    C           -1.405207102961     0.733170149942     2.004490787822
    C            1.761433207652    -2.001172380556    -2.360474114719
    C            3.179974597494    -0.597175546752    -1.269094068644
    C           -0.299429806097     0.135001523087    -0.075980086016
    C            0.839087364440    -0.444151568100    -0.790036773503
    C           -2.448728259793     1.309168937311     1.294499127986
    C           -0.355908824376     0.169324145079     1.308259513037
    N            3.011106922698    -1.578484077315    -2.158975746851
    O           -3.517648055968     1.888816852338     1.903879366899
    F            0.642318153642    -0.386304029622     2.019679395616
    H           -1.333464824966     0.743115013151    -1.837377306353
    H           -3.236369845321     1.771861882148    -0.632325759186
    H           -0.328795172578    -1.868109298241    -1.894313332590
    H            2.337734057028     0.781483323874     0.140753490983
    H           -1.393002118277     0.712210373776     3.083557847647
    H            1.636902883408    -2.802552806201    -3.075227898910
    H            4.196456266238    -0.264598331866    -1.112661799400
    H           -3.413339937248     1.823229199273     2.857893098941

*** Psi4 exiting successfully. Buy a developer a beer!
