                               Psi4 1.1 release

  ==> Input File <==

--------------------------------------------------------------------------

memory 5 Gb

molecule phepyrOH_zwitterion {
  symmetry C1
  0 1
  C      1.885   -1.036   -0.112
  C      2.878   -1.652   2.002
  C      0.807   -0.463   0.561
  C      1.800   -1.079   2.676
  C      5.160   -1.458   -0.393
  C      3.997   -3.567   -0.461
  C      6.218   -2.055   -1.063
  C      5.085   -4.110   -1.130
  C      2.921   -1.631   0.608
  C      4.040   -2.226   -0.090
  C      0.764   -0.484   1.955
  N      6.151   -3.348   -1.408
  O      -0.227   0.042   2.574
  H      1.904   -1.011   -1.199
  H      3.678   -2.112   2.577
  H      0.011   -0.006   -0.025
  H      1.791   -1.108   3.764
  H      5.221   -0.410   -0.115
  H      3.136   -4.189   -0.238
  H      7.127   -1.536   -1.338
  H      5.139   -5.140   -1.455
  H      6.939   -3.766   -1.902
  units Angstrom
}

dih_string = "1 9 10 5 90"
set optking fixed_dihedral = $dih_string

optimize('MP2/aug-cc-PVTZ')
--------------------------------------------------------------------------

    Molecular point group: c1
  Charge       = 0
  Multiplicity = 1
  Basis Set: AUG-CC-PVTZ
    Blend: AUG-CC-PVTZ
  Basis Set: (AUG-CC-PVTZ AUX)
    Blend: AUG-CC-PVTZ-JKFIT
  @DF-RHF Final Energy:  -551.18524254105398
    Total Energy =                       -551.1852425410539809
  Basis Set: (AUG-CC-PVTZ AUX)
    Blend: AUG-CC-PVTZ-RI
    Molecular point group: c1
  Basis Set: AUG-CC-PVTZ
    Blend: AUG-CC-PVTZ
  Basis Set: (AUG-CC-PVTZ AUX)
    Blend: AUG-CC-PVTZ-JKFIT
  Basis Set: (AUG-CC-PVTZ AUX)
    Blend: AUG-CC-PVTZ-JKFIT
	 Reference Energy          =    -551.1852425410539809 [Eh]
	 Singles Energy            =      -0.0000000000000003 [Eh]
	 Same-Spin Energy          =      -0.6051044811475577 [Eh]
	 Opposite-Spin Energy      =      -1.8335780169487144 [Eh]
	 Correlation Energy        =      -2.4386824980962722 [Eh]
	 Total Energy              =    -553.6239250391502082 [Eh]
	 SCS Total Energy          =    -553.5872376551083107 [Eh]
  @DF-RHF Final Energy:  -551.19154235885617
    Total Energy =                       -551.1915423588561680
  @DF-RHF Final Energy:  -551.19535589838711
    Total Energy =                       -551.1953558983871062
  @DF-RHF Final Energy:  -551.19615418224930
    Total Energy =                       -551.1961541822493018
  @DF-RHF Final Energy:  -551.19610834437049
    Total Energy =                       -551.1961083443704865
  Charge       = 0
  Multiplicity = 1
  Basis Set: AUG-CC-PVTZ
    Blend: AUG-CC-PVTZ
  Basis Set: (AUG-CC-PVTZ AUX)
    Blend: AUG-CC-PVTZ-JKFIT

    Orbital Energies (a.u.)
    -----------------------

    Doubly Occupied:

       1A    -20.403127     2A    -15.739920     3A    -11.384065
       4A    -11.384035     5A    -11.334602     6A    -11.306657
       7A    -11.306626     8A    -11.222798     9A    -11.206698
      10A    -11.206675    11A    -11.188416    12A    -11.158222
      13A    -11.158212    14A     -1.415543    15A     -1.239605
      16A     -1.192280    17A     -1.140494    18A     -1.094086
      19A     -0.991434    20A     -0.968973    21A     -0.960916
      22A     -0.903475    23A     -0.866881    24A     -0.780376
      25A     -0.775531    26A     -0.765229    27A     -0.728947
      28A     -0.702056    29A     -0.694098    30A     -0.680420
      31A     -0.626436    32A     -0.598132    33A     -0.594877
      34A     -0.586512    35A     -0.540315    36A     -0.520603
      37A     -0.474697    38A     -0.473855    39A     -0.470141
      40A     -0.440788    41A     -0.439625    42A     -0.396246
      43A     -0.311515    44A     -0.302721    45A     -0.210867

  @DF-RHF Final Energy:  -551.19609985564227

   => Energetics <=

    Nuclear Repulsion Energy =            696.9991116270977045
    One-Electron Energy =               -2130.6149721166252675
    Two-Electron Energy =                 882.4197606338854030
    DFT Exchange-Correlation Energy =       0.0000000000000000
    Empirical Dispersion Energy =           0.0000000000000000
    PCM Polarization Energy =               0.0000000000000000
    EFP Energy =                            0.0000000000000000
    Total Energy =                       -551.1960998556422737
  Basis Set: (AUG-CC-PVTZ AUX)
    Blend: AUG-CC-PVTZ-RI
    Molecular point group: c1
  Basis Set: AUG-CC-PVTZ
    Blend: AUG-CC-PVTZ
  Basis Set: (AUG-CC-PVTZ AUX)
    Blend: AUG-CC-PVTZ-JKFIT
  Basis Set: (AUG-CC-PVTZ AUX)
    Blend: AUG-CC-PVTZ-JKFIT
	 Reference Energy          =    -551.1960998556422737 [Eh]
	 Singles Energy            =      -0.0000000000000006 [Eh]
	 Same-Spin Energy          =      -0.6037645238097225 [Eh]
	 Opposite-Spin Energy      =      -1.8320171151612854 [Eh]
	 Correlation Energy        =      -2.4357816389710085 [Eh]
	 Total Energy              =    -553.6318814946132534 [Eh]

	 ================> DF-SCS-MP2 Energies <==================
	-----------------------------------------------------------
	 SCS Same-Spin Scale       =       0.3333333333333333 [-]
	 SCS Opposite-Spin Scale   =       1.2000000000000000 [-]
	 SCS Same-Spin Energy      =      -0.2012548412699075 [Eh]
	 SCS Opposite-Spin Energy  =      -2.1984205381935422 [Eh]
	 SCS Correlation Energy    =      -2.3996753794634502 [Eh]
	 SCS Total Energy          =    -553.5957752351057479 [Eh]
	-----------------------------------------------------------

  -Total Gradient:
     Atom            X                  Y                   Z
    ------   -----------------  -----------------  -----------------
       1        0.000002857543     0.000013307921    -0.000020516110
       2        0.000016665595    -0.000003706727     0.000015826124
       3        0.000060937865     0.000046566971     0.000008852714
       4        0.000043007214     0.000055313957    -0.000025471215
       5       -0.000013477075    -0.000001097178     0.000002086079
       6       -0.000008496025     0.000009433578     0.000009348028
       7        0.000010913411    -0.000006508198    -0.000005339900
       8        0.000014647356    -0.000007699164    -0.000001827230
       9        0.000067579288    -0.000036081548    -0.000041932117
      10       -0.000030526179     0.000021412669     0.000017933939
      11       -0.000131122054    -0.000192900983     0.000003040777
      12       -0.000028609641     0.000016337224     0.000013346273
      13        0.000040518501     0.000080254096     0.000005159553
      14       -0.000022072850     0.000003397340    -0.000012752791
      15       -0.000004911785    -0.000006760690     0.000023233772
      16       -0.000024973118     0.000013088990    -0.000025736281
      17        0.000004562809    -0.000004056745     0.000037152955
      18        0.000002915765     0.000024211937     0.000006330288
      19       -0.000019745940    -0.000015662635     0.000004793293
      20        0.000004032262     0.000005670797    -0.000000416818
      21       -0.000003386712    -0.000004801520    -0.000001912707
      22        0.000018683766    -0.000009720092    -0.000011198618

  **** Optimization is complete! (in 6 steps) ****
    Final optimized geometry and variables:
    Molecular point group: c1

    Geometry (in Angstrom), charge = 0, multiplicity = 1:

    C           -1.306272866221     0.738283021725    -0.548081968048
    C           -0.315927667570     0.123977772445     1.561039527573
    C           -2.371898174239     1.304691476726     0.116480310294
    C           -1.381007402482     0.690017070238     2.226790062955
    C            2.004537586905     0.285390309492    -0.858024595459
    C            0.852020010087    -1.803737985698    -0.925526371724
    C            3.061446731775    -0.290890956385    -1.522243659853
    C            1.921342469189    -2.357538795052    -1.589005789097
    C           -0.257821071148     0.136976233916     0.161008440009
    C            0.860807986895    -0.457562731681    -0.537447834578
    C           -2.484399710029     1.319915558976     1.551046161714
    N            2.987804816488    -1.588053195572    -1.865632190817
    O           -3.454289592212     1.836470027914     2.156921921200
    H           -1.277455978747     0.757427818585    -1.631464958882
    H            0.486605780593    -0.336803650966     2.125426984890
    H           -3.172977028555     1.764982392938    -0.444586912489
    H           -1.411372060261     0.672217706553     3.307137034082
    H            2.050676012676     1.325282310674    -0.576692498774
    H           -0.009982221165    -2.410001061204    -0.697383014962
    H            3.964216245313     0.230003552148    -1.794412970965
    H            1.970321519728    -3.384279669113    -1.911185544454
    H            3.768811745383    -2.003153527929    -2.353329686754

*** Psi4 exiting successfully. Buy a developer a beer!
