                               Psi4 1.1 release

  ==> Input File <==

--------------------------------------------------------------------------

memory 1000 mb

molecule butane {
  symmetry C1
  0 1
  H      1.624   0.807   -9.001
  H      1.948   2.493   -9.329
  H      2.570   1.260   -10.398
  C      2.345   1.500   -9.381
  H      4.352   2.109   -8.918
  H      3.407   1.657   -7.519
  C      3.631   1.416   -8.537
  H      3.665   -0.647   -7.940
  H      4.104   -0.384   -9.610
  C      4.203   -0.012   -8.612
  H      6.088   -0.983   -8.270
  H      5.791   0.381   -7.220
  H      6.230   0.644   -8.890
  C      5.691   0.009   -8.218
  units Angstrom
}

dih_string = "14 10 7 4 160"
set optking fixed_dihedral = $dih_string

optimize('MP2/aug-cc-pvtz')
--------------------------------------------------------------------------

    Molecular point group: c1
  Charge       = 0
  Multiplicity = 1
  Basis Set: AUG-CC-PVTZ
    Blend: AUG-CC-PVTZ
  Basis Set: (AUG-CC-PVTZ AUX)
    Blend: AUG-CC-PVTZ-JKFIT
  @DF-RHF Final Energy:  -157.35129184367207
    Total Energy =                       -157.3512918436720724
  Basis Set: (AUG-CC-PVTZ AUX)
    Blend: AUG-CC-PVTZ-RI
    Molecular point group: c1
  Basis Set: AUG-CC-PVTZ
    Blend: AUG-CC-PVTZ
  Basis Set: (AUG-CC-PVTZ AUX)
    Blend: AUG-CC-PVTZ-JKFIT
  Basis Set: (AUG-CC-PVTZ AUX)
    Blend: AUG-CC-PVTZ-JKFIT
	 Reference Energy          =    -157.3512918436720724 [Eh]
	 Singles Energy            =      -0.0000000000000001 [Eh]
	 Same-Spin Energy          =      -0.1654113478365838 [Eh]
	 Opposite-Spin Energy      =      -0.6389813104126003 [Eh]
	 Correlation Energy        =      -0.8043926582491842 [Eh]
	 Total Energy              =    -158.1556845019212574 [Eh]
	 SCS Total Energy          =    -158.1732065321127152 [Eh]
  @DF-RHF Final Energy:  -157.35394960659255
    Total Energy =                       -157.3539496065925505
  @DF-RHF Final Energy:  -157.35477743319248
    Total Energy =                       -157.3547774331924813
  @DF-RHF Final Energy:  -157.35506478042203
    Total Energy =                       -157.3550647804220262
  @DF-RHF Final Energy:  -157.35509656218733
    Total Energy =                       -157.3550965621873274
  @DF-RHF Final Energy:  -157.35510067155019
    Total Energy =                       -157.3551006715501899
  Charge       = 0
  Multiplicity = 1
  Basis Set: AUG-CC-PVTZ
    Blend: AUG-CC-PVTZ
  Basis Set: (AUG-CC-PVTZ AUX)
    Blend: AUG-CC-PVTZ-JKFIT

    Orbital Energies (a.u.)
    -----------------------

    Doubly Occupied:

       1A    -11.211349     2A    -11.210720     3A    -11.206210
       4A    -11.206203     5A     -1.073807     6A     -0.982251
       7A     -0.860842     8A     -0.788063     9A     -0.640088
      10A     -0.585210    11A     -0.581108    12A     -0.565321
      13A     -0.513818    14A     -0.497069    15A     -0.467898
      16A     -0.460437    17A     -0.456513

  @DF-RHF Final Energy:  -157.35510043013770

   => Energetics <=

    Nuclear Repulsion Energy =            131.5433892224511681
    One-Electron Energy =                -471.1831618234503480
    Two-Electron Energy =                 182.2846721708615121
    DFT Exchange-Correlation Energy =       0.0000000000000000
    Empirical Dispersion Energy =           0.0000000000000000
    PCM Polarization Energy =               0.0000000000000000
    EFP Energy =                            0.0000000000000000
    Total Energy =                       -157.3551004301376963
  Basis Set: (AUG-CC-PVTZ AUX)
    Blend: AUG-CC-PVTZ-RI
    Molecular point group: c1
  Basis Set: AUG-CC-PVTZ
    Blend: AUG-CC-PVTZ
  Basis Set: (AUG-CC-PVTZ AUX)
    Blend: AUG-CC-PVTZ-JKFIT
  Basis Set: (AUG-CC-PVTZ AUX)
    Blend: AUG-CC-PVTZ-JKFIT
	 Reference Energy          =    -157.3551004301376963 [Eh]
	 Singles Energy            =      -0.0000000000000001 [Eh]
	 Same-Spin Energy          =      -0.1654494840050226 [Eh]
	 Opposite-Spin Energy      =      -0.6394177371746739 [Eh]
	 Correlation Energy        =      -0.8048672211796966 [Eh]
	 Total Energy              =    -158.1599676513174018 [Eh]

	 ================> DF-SCS-MP2 Energies <==================
	-----------------------------------------------------------
	 SCS Same-Spin Scale       =       0.3333333333333333 [-]
	 SCS Opposite-Spin Scale   =       1.2000000000000000 [-]
	 SCS Same-Spin Energy      =      -0.0551498280016742 [Eh]
	 SCS Opposite-Spin Energy  =      -0.7673012846096087 [Eh]
	 SCS Correlation Energy    =      -0.8224511126112830 [Eh]
	 SCS Total Energy          =    -158.1775515427489722 [Eh]
	-----------------------------------------------------------

  -Total Gradient:
     Atom            X                  Y                   Z
    ------   -----------------  -----------------  -----------------
       1        0.000012562799    -0.000000820290     0.000014352284
       2       -0.000006840442     0.000005126273    -0.000005051496
       3        0.000004532471     0.000004580473     0.000008404205
       4        0.001112878718     0.000592914261    -0.001808423498
       5        0.000002154354    -0.000006173925    -0.000038868999
       6       -0.000017141250    -0.000017434577     0.000003188603
       7       -0.001351588964    -0.000641094670     0.001701102112
       8        0.000005857864     0.000010962758     0.000020423521
       9        0.000024922341     0.000020436739    -0.000021045615
      10       -0.000413749768    -0.000282230958     0.002209641137
      11        0.000007591846    -0.000005083900    -0.000000614245
      12       -0.000020186328    -0.000001228138     0.000000505775
      13       -0.000007590273    -0.000004503774    -0.000001337171
      14        0.000646596631     0.000324549727    -0.002082276614

  **** Optimization is complete! (in 7 steps) ****
    Final optimized geometry and variables:
    Molecular point group: c1

    Geometry (in Angstrom), charge = 0, multiplicity = 1:

    H           -2.370424449246     0.033611232059    -0.348532857734
    H           -2.085281123096     1.748772093813    -0.619764876265
    H           -1.425502436259     0.556848349958    -1.735710841698
    C           -1.634692762512     0.761247978334    -0.687619783660
    H            0.361531692004     1.389277780329    -0.248221753748
    H           -0.557980805595     0.944969236117     1.168981181687
    C           -0.362104579097     0.666632614423     0.133151871469
    H           -0.302088182423    -1.394020823352     0.732314200582
    H            0.169551910660    -1.111998477454    -0.925809748314
    C            0.261968498114    -0.718916927497     0.088219364124
    H            2.149507678728    -1.715237001898     0.477751139553
    H            1.856598552697    -0.301875985227     1.484380444449
    H            2.302926349289    -0.098723904415    -0.203947428436
    C            1.726527792948    -0.713299202564     0.484604446664

*** Psi4 exiting successfully. Buy a developer a beer!
