                              Psi4 1.0.0 Driver

  ==> Input File <==

--------------------------------------------------------------------------

memory 1000 mb

molecule butane {
  symmetry C1
  0 1
  H      1.604   0.760   -8.260
  H      1.745   2.388   -8.880
  H      2.043   1.024   -9.930
  C      2.142   1.395   -8.932
  H      4.169   2.051   -9.210
  H      3.731   1.788   -7.539
  C      3.631   1.416   -8.537
  H      4.242   -0.432   -7.629
  H      3.575   -0.616   -9.233
  C      4.203   -0.012   -8.612
  H      6.019   -0.959   -9.259
  H      6.250   0.637   -8.587
  H      5.584   0.454   -10.191
  C      5.622   0.033   -9.207
  units Angstrom
}

dih_string = "4 7 10 14 140"
set optking fixed_dihedral = $dih_string

optimize('MP2/6-31G(d)')
--------------------------------------------------------------------------

    Molecular point group: c1
  Charge       = 0
  Multiplicity = 1
  Basis Set: 6-31G(D)
  Basis Set:
  @DF-RHF Final Energy:  -157.28945483938895
    Total Energy =                       -157.2894548393890091
  Basis Set:
    Molecular point group: c1
  Basis Set: 6-31G(D)
  Basis Set:
  Basis Set:
	 Reference Energy          =    -157.2894548393889522 [Eh]
	 Singles Energy            =      -0.0000000000000000 [Eh]
	 Same-Spin Energy          =      -0.1244065889850083 [Eh]
	 Opposite-Spin Energy      =      -0.4203584571104076 [Eh]
	 Correlation Energy        =      -0.5447650460954159 [Eh]
	 Total Energy              =    -157.8342198854843730 [Eh]
	 SCS Total Energy          =    -157.8353538509164480 [Eh]
  Basis Set: 6-31G(D)
  Basis Set:
  @DF-RHF Final Energy:  -157.29242145669994
    Total Energy =                       -157.2924214566999694
  Basis Set:
  Basis Set: 6-31G(D)
  Basis Set:
  @DF-RHF Final Energy:  -157.29328510417193
    Total Energy =                       -157.2932851041719005
  @DF-RHF Final Energy:  -157.29360890150798
    Total Energy =                       -157.2936089015079233
  @DF-RHF Final Energy:  -157.29367571273724
    Total Energy =                       -157.2936757127371834
  @DF-RHF Final Energy:  -157.29369608728334
    Total Energy =                       -157.2936960872835073
	 Singles Energy            =      -0.0000000000000000 [Eh]
	 Same-Spin Energy          =      -0.1243280061750232 [Eh]
	 Opposite-Spin Energy      =      -0.4223499644230288 [Eh]
	 Correlation Energy        =      -0.5466779705980520 [Eh]
	 Total Energy              =    -157.8403740578813768 [Eh]
	 SCS Total Energy          =    -157.8419587133159894 [Eh]
  Charge       = 0
  Multiplicity = 1
  Basis Set: 6-31G(D)
  Basis Set:

    Orbital Energies (a.u.)
    -----------------------

    Doubly Occupied:

       1A    -11.215558     2A    -11.214987     3A    -11.210447
       4A    -11.210441     5A     -1.068445     6A     -0.979516
       7A     -0.859310     8A     -0.786594     9A     -0.633422
      10A     -0.587036    11A     -0.581747    12A     -0.557892
      13A     -0.510872    14A     -0.501870    15A     -0.464915
      16A     -0.457063    17A     -0.454660

  @DF-RHF Final Energy:  -157.29368893714607

   => Energetics <=

    Nuclear Repulsion Energy =            130.8301100249975377
    One-Electron Energy =                -469.6580438659242986
    Two-Electron Energy =                 181.5342449037806603
    DFT Exchange-Correlation Energy =       0.0000000000000000
    Empirical Dispersion Energy =           0.0000000000000000
    PCM Polarization Energy =               0.0000000000000000
    EFP Energy =                            0.0000000000000000
    Total Energy =                       -157.2936889371461291
  Basis Set:
    Molecular point group: c1
  Basis Set: 6-31G(D)
  Basis Set:
  Basis Set:
	 Reference Energy          =    -157.2936889371460722 [Eh]
	 Singles Energy            =      -0.0000000000000000 [Eh]
	 Same-Spin Energy          =      -0.1243292216790117 [Eh]
	 Opposite-Spin Energy      =      -0.4223553198924415 [Eh]
	 Correlation Energy        =      -0.5466845415714532 [Eh]
	 Total Energy              =    -157.8403734787175381 [Eh]

	 ================> DF-SCS-MP2 Energies <==================
	-----------------------------------------------------------
	 SCS Same-Spin Scale       =       0.3333333333333333 [-]
	 SCS Opposite-Spin Scale   =       1.2000000000000000 [-]
	 SCS Same-Spin Energy      =      -0.0414430738930039 [Eh]
	 SCS Opposite-Spin Energy  =      -0.5068263838709297 [Eh]
	 SCS Correlation Energy    =      -0.5482694577639337 [Eh]
	 SCS Total Energy          =    -157.8419583949099945 [Eh]
	-----------------------------------------------------------

  -Total Gradient:
     Atom            X                  Y                   Z
    ------   -----------------  -----------------  -----------------
       1        0.000002182330    -0.000002420072     0.000009939763
       2       -0.000003424829     0.000005542288    -0.000005300130
       3       -0.000018797489    -0.000008416980    -0.000008653335
       4        0.000752129892     0.000483159882    -0.002850936017
       5        0.000005900776    -0.000002500376     0.000007316289
       6        0.000009144168    -0.000002089100     0.000012667586
       7       -0.001439032986    -0.000812224826     0.002873289317
       8       -0.000007208253     0.000001586218     0.000013782367
       9       -0.000004617501     0.000002250602     0.000007953991
      10        0.001821950115     0.000662146049     0.002689147493
      11        0.000002891073    -0.000005669665    -0.000006042426
      12       -0.000000596814     0.000001801080     0.000010475670
      13        0.000017331196     0.000008726508    -0.000010489718
      14       -0.001137851681    -0.000331891610    -0.002743150851

  **** Optimization is complete! (in 7 steps) ****
    Final optimized geometry and variables:
    Molecular point group: c1

    Geometry (in Angstrom), charge = 0, multiplicity = 1:

    H           -2.352447407903     0.036704891867     0.566424683859
    H           -2.207990054359     1.702087097066    -0.009867773242
    H           -1.913228210966     0.352326376609    -1.115586396263
    C           -1.777416144169     0.699642019682    -0.087382886578
    H            0.233651885219     1.365679528149    -0.396328962289
    H           -0.160177242739     1.110788122614     1.289699096413
    C           -0.298826582549     0.692454200371     0.286763266272
    H            0.330940778305    -1.177629348769     1.194361168129
    H           -0.290672948387    -1.343358148259    -0.433182018715
    C            0.332683048654    -0.705706590819     0.205729677899
    H            2.179620432262    -1.690984160672    -0.402794252065
    H            2.407655333370    -0.058318955531     0.236644845765
    H            1.741398135413    -0.285063911231    -1.383967326551
    C            1.746184163610    -0.687416896205    -0.366930543380

*** Psi4 exiting successfully. Buy a developer a beer!
