                               Psi4 1.1 release

  ==> Input File <==

--------------------------------------------------------------------------

memory 5 Gb

molecule phepyrFOH_cation {
  symmetry C1
  1 1
  C      1.885   -1.036   -0.112
  C      0.807   -0.463   0.561
  C      4.830   -1.443   -0.930
  C      4.321   -3.578   0.063
  C      1.800   -1.079   2.676
  C      5.894   -2.040   -1.592
  C      5.398   -4.120   -0.624
  C      2.921   -1.631   0.608
  C      4.038   -2.225   -0.095
  C      0.764   -0.484   1.955
  C      2.878   -1.652   2.002
  N      6.144   -3.345   -1.422
  O      -0.289   0.076   2.612
  F      3.866   -2.220   2.709
  H      1.904   -1.012   -1.199
  H      0.002   -0.002   -0.006
  H      4.632   -0.385   -1.072
  H      3.719   -4.212   0.708
  H      1.772   -1.099   3.762
  H      6.561   -1.511   -2.259
  H      5.691   -5.159   -0.561
  H      6.930   -3.764   -1.918
  H      -0.796   0.644   2.011
  units Angstrom
}

dih_string = "2 10 13 23 345"
set optking fixed_dihedral = $dih_string

optimize('MP2/aug-cc-PVTZ')
--------------------------------------------------------------------------

    Molecular point group: c1
  Charge       = 1
  Multiplicity = 1
  Basis Set: AUG-CC-PVTZ
    Blend: AUG-CC-PVTZ
  Basis Set: (AUG-CC-PVTZ AUX)
    Blend: AUG-CC-PVTZ-JKFIT
  @DF-RHF Final Energy:  -650.55908507988670
    Total Energy =                       -650.5590850798866995
  Basis Set: (AUG-CC-PVTZ AUX)
    Blend: AUG-CC-PVTZ-RI
    Molecular point group: c1
  Basis Set: AUG-CC-PVTZ
    Blend: AUG-CC-PVTZ
  Basis Set: (AUG-CC-PVTZ AUX)
    Blend: AUG-CC-PVTZ-JKFIT
  Basis Set: (AUG-CC-PVTZ AUX)
    Blend: AUG-CC-PVTZ-JKFIT
	 Reference Energy          =    -650.5590850798866995 [Eh]
	 Singles Energy            =      -0.0000000000000004 [Eh]
	 Same-Spin Energy          =      -0.6691144430346663 [Eh]
	 Opposite-Spin Energy      =      -2.0139847966512101 [Eh]
	 Correlation Energy        =      -2.6830992396858768 [Eh]
	 Total Energy              =    -653.2421843195726296 [Eh]
	 SCS Total Energy          =    -653.1989049835464130 [Eh]
  @DF-RHF Final Energy:  -650.56473154716514
    Total Energy =                       -650.5647315471651382
  @DF-RHF Final Energy:  -650.56647136819879
    Total Energy =                       -650.5664713681987905
  @DF-RHF Final Energy:  -650.56699712159468
    Total Energy =                       -650.5669971215945679
  @DF-RHF Final Energy:  -650.56736706535435
    Total Energy =                       -650.5673670653543468
  @DF-RHF Final Energy:  -650.56779362999657
    Total Energy =                       -650.5677936299966859
  @DF-RHF Final Energy:  -650.56824873946164
    Total Energy =                       -650.5682487394615237
  @DF-RHF Final Energy:  -650.56867449156141
    Total Energy =                       -650.5686744915612962
  @DF-RHF Final Energy:  -650.56903068539623
    Total Energy =                       -650.5690306853962284
  @DF-RHF Final Energy:  -650.56931432325894
    Total Energy =                       -650.5693143232590501
  @DF-RHF Final Energy:  -650.56951553609463
    Total Energy =                       -650.5695155360945137
  @DF-RHF Final Energy:  -650.56962633200749
    Total Energy =                       -650.5696263320073740
  @DF-RHF Final Energy:  -650.56965146021912
    Total Energy =                       -650.5696514602191201
  @DF-RHF Final Energy:  -650.56965314912793
    Total Energy =                       -650.5696531491280439
  @DF-RHF Final Energy:  -650.56968557388359
    Total Energy =                       -650.5696855738835893
  Charge       = 1
  Multiplicity = 1
  Basis Set: AUG-CC-PVTZ
    Blend: AUG-CC-PVTZ
  Basis Set: (AUG-CC-PVTZ AUX)
    Blend: AUG-CC-PVTZ-JKFIT

    Orbital Energies (a.u.)
    -----------------------

    Doubly Occupied:

       1A    -26.443763     2A    -20.716632     3A    -15.829611
       4A    -11.480530     5A    -11.478389     6A    -11.471953
       7A    -11.454096     8A    -11.448159     9A    -11.412122
      10A    -11.408267    11A    -11.391409    12A    -11.382449
      13A    -11.360365    14A    -11.355953    15A     -1.764112
      16A     -1.540332    17A     -1.507915    18A     -1.323941
      19A     -1.275902    20A     -1.237983    21A     -1.171058
      22A     -1.161138    23A     -1.065211    24A     -1.063810
      25A     -0.991959    26A     -0.979747    27A     -0.960694
      28A     -0.900554    29A     -0.882702    30A     -0.864933
      31A     -0.834545    32A     -0.832991    33A     -0.819825
      34A     -0.806887    35A     -0.792164    36A     -0.772971
      37A     -0.768581    38A     -0.756469    39A     -0.731047
      40A     -0.722956    41A     -0.708200    42A     -0.683970
      43A     -0.675211    44A     -0.646737    45A     -0.636027
      46A     -0.574625    47A     -0.538155    48A     -0.479115
      49A     -0.447572

  @DF-RHF Final Energy:  -650.56970167615782

   => Energetics <=

    Nuclear Repulsion Energy =            831.3257441711955380
    One-Electron Energy =               -2522.6834223020491663
    Two-Electron Energy =                1040.7879764546958086
    DFT Exchange-Correlation Energy =       0.0000000000000000
    Empirical Dispersion Energy =           0.0000000000000000
    PCM Polarization Energy =               0.0000000000000000
    EFP Energy =                            0.0000000000000000
    Total Energy =                       -650.5697016761578197
  Basis Set: (AUG-CC-PVTZ AUX)
    Blend: AUG-CC-PVTZ-RI
    Molecular point group: c1
  Basis Set: AUG-CC-PVTZ
    Blend: AUG-CC-PVTZ
  Basis Set: (AUG-CC-PVTZ AUX)
    Blend: AUG-CC-PVTZ-JKFIT
  Basis Set: (AUG-CC-PVTZ AUX)
    Blend: AUG-CC-PVTZ-JKFIT
	 Reference Energy          =    -650.5697016761578197 [Eh]
	 Singles Energy            =      -0.0000000000000001 [Eh]
	 Same-Spin Energy          =      -0.6688154350385680 [Eh]
	 Opposite-Spin Energy      =      -2.0123151344766308 [Eh]
	 Correlation Energy        =      -2.6811305695151990 [Eh]
	 Total Energy              =    -653.2508322456729957 [Eh]

	 ================> DF-SCS-MP2 Energies <==================
	-----------------------------------------------------------
	 SCS Same-Spin Scale       =       0.3333333333333333 [-]
	 SCS Opposite-Spin Scale   =       1.2000000000000000 [-]
	 SCS Same-Spin Energy      =      -0.2229384783461893 [Eh]
	 SCS Opposite-Spin Energy  =      -2.4147781613719568 [Eh]
	 SCS Correlation Energy    =      -2.6377166397181462 [Eh]
	 SCS Total Energy          =    -653.2074183158759979 [Eh]
	-----------------------------------------------------------

  -Total Gradient:
     Atom            X                  Y                   Z
    ------   -----------------  -----------------  -----------------
       1        0.000025829143    -0.000026150828     0.000006037353
       2       -0.000965575108    -0.001455570744    -0.000390749763
       3       -0.000005731787    -0.000013048303     0.000031938531
       4       -0.000031754248     0.000030398926     0.000001036524
       5       -0.000008472253     0.000016545675     0.000002335891
       6        0.000020156708    -0.000032971926     0.000008693127
       7        0.000020208735     0.000010877331    -0.000033389713
       8       -0.000049465697     0.000036808891     0.000015681072
       9        0.000040501553    -0.000026781363    -0.000029806412
      10        0.001888485129     0.002645282643     0.000889832902
      11        0.000017384399     0.000007311762    -0.000021439236
      12       -0.000033822592     0.000023072299     0.000017074813
      13       -0.002320799709    -0.002723000805    -0.001519401770
      14       -0.000020208777     0.000015869809    -0.000002561396
      15       -0.000008456588     0.000000232016     0.000017858022
      16        0.000013369530    -0.000007768416     0.000020352600
      17        0.000003362636    -0.000027384923     0.000004003196
      18        0.000017839069     0.000000612038    -0.000026596673
      19       -0.000007271201     0.000009371734    -0.000025454417
      20       -0.000006995566    -0.000016720771     0.000012499858
      21       -0.000001971243     0.000023655279    -0.000007961120
      22        0.000002198028     0.000001540753     0.000001561464
      23        0.001411189834     0.001507818921     0.001028455144

  **** Optimization is complete! (in 16 steps) ****
    Final optimized geometry and variables:
    Molecular point group: c1

    Geometry (in Angstrom), charge = 1, multiplicity = 1:

    C           -1.143018386998     1.054700097306    -0.716940924593
    C           -2.225002448771     1.623182026333    -0.082172773240
    C            1.469046216563     0.265614381355    -1.810358934323
    C            1.379480738239    -1.652497970268    -0.388450827596
    C           -1.578479046186     0.540881255330     1.971025313023
    C            2.520045406600    -0.301067705200    -2.485636050365
    C            2.431308174252    -2.191672829184    -1.086196763801
    C           -0.258755259845     0.201310014548    -0.045513865678
    C            0.860892028075    -0.396864540180    -0.735483757765
    C           -2.440281117983     1.378642662441     1.273755506878
    C           -0.523372761207    -0.029425714959     1.306025832315
    N            2.971448092099    -1.507900073609    -2.107658607374
    O           -3.482718804503     1.873665845301     1.959783904659
    F            0.316143740929    -0.805841429285     2.011497591156
    H           -1.011136518117     1.230381669379    -1.773680829011
    H           -2.908489001059     2.248803712439    -0.635690370842
    H            1.142707481935     1.248689086793    -2.106709533006
    H            0.951700352256    -2.225332712442     0.415006372098
    H           -1.729049455329     0.349835737885     3.020793456125
    H            3.025974116367     0.174530530399    -3.309024280121
    H            2.857233947609    -3.156045830945    -0.865268007980
    H            3.750112992723    -1.915712264261    -2.608950735574
    H           -3.908246943415     2.582831726307     1.464841671108

*** Psi4 exiting successfully. Buy a developer a beer!
