                               Psi4 1.1 release

  ==> Input File <==

--------------------------------------------------------------------------

memory 5 Gb

molecule phepyrOH_anion {
  symmetry C1
  -1 1
  C      1.885   -1.036   -0.112
  C      2.878   -1.652   2.002
  C      0.807   -0.463   0.561
  C      1.800   -1.079   2.676
  C      5.207   -2.536   0.598
  C      3.951   -2.491   -1.452
  C      6.249   -3.106   -0.116
  C      5.049   -3.062   -2.074
  C      2.921   -1.631   0.608
  C      4.040   -2.226   -0.090
  C      0.764   -0.484   1.955
  N      6.200   -3.378   -1.439
  O      -0.227   0.042   2.574
  H      1.904   -1.011   -1.199
  H      3.678   -2.112   2.577
  H      0.011   -0.006   -0.025
  H      1.791   -1.108   3.764
  H      5.314   -2.346   1.661
  H      3.057   -2.262   -2.022
  H      7.180   -3.369   0.376
  H      5.031   -3.287   -3.135
  units Angstrom
}

dih_string = "1 9 10 5 165"
set optking fixed_dihedral = $dih_string

optimize('MP2/aug-cc-PVTZ')
--------------------------------------------------------------------------

    Molecular point group: c1
  Charge       = -1
  Multiplicity = 1
  Basis Set: AUG-CC-PVTZ
    Blend: AUG-CC-PVTZ
  Basis Set: (AUG-CC-PVTZ AUX)
    Blend: AUG-CC-PVTZ-JKFIT
  @DF-RHF Final Energy:  -550.71386733274699
    Total Energy =                       -550.7138673327469860
  Basis Set: (AUG-CC-PVTZ AUX)
    Blend: AUG-CC-PVTZ-RI
    Molecular point group: c1
  Basis Set: AUG-CC-PVTZ
    Blend: AUG-CC-PVTZ
  Basis Set: (AUG-CC-PVTZ AUX)
    Blend: AUG-CC-PVTZ-JKFIT
  Basis Set: (AUG-CC-PVTZ AUX)
    Blend: AUG-CC-PVTZ-JKFIT
	 Reference Energy          =    -550.7138673327469860 [Eh]
	 Singles Energy            =      -0.0000000000000010 [Eh]
	 Same-Spin Energy          =      -0.6143282920190034 [Eh]
	 Opposite-Spin Energy      =      -1.8396304230818250 [Eh]
	 Correlation Energy        =      -2.4539587151008293 [Eh]
	 Total Energy              =    -553.1678260478478251 [Eh]
	 SCS Total Energy          =    -553.1261999377848042 [Eh]
  @DF-RHF Final Energy:  -550.72231624973949
    Total Energy =                       -550.7223162497394924
  @DF-RHF Final Energy:  -550.72751888024482
    Total Energy =                       -550.7275188802448156
  @DF-RHF Final Energy:  -550.72982665088728
    Total Energy =                       -550.7298266508872757
  @DF-RHF Final Energy:  -550.73008679505779
    Total Energy =                       -550.7300867950577867
  @DF-RHF Final Energy:  -550.73007747863164
    Total Energy =                       -550.7300774786316424
  Charge       = -1
  Multiplicity = 1
  Basis Set: AUG-CC-PVTZ
    Blend: AUG-CC-PVTZ
  Basis Set: (AUG-CC-PVTZ AUX)
    Blend: AUG-CC-PVTZ-JKFIT

    Orbital Energies (a.u.)
    -----------------------

    Doubly Occupied:

       1A    -20.324847     2A    -15.440527     3A    -11.159900
       4A    -11.159884     5A    -11.146923     6A    -11.137328
       7A    -11.112093     8A    -11.112070     9A    -11.103531
      10A    -11.103516    11A    -11.078890    12A    -11.065467
      13A    -11.065452    14A     -1.155395    15A     -1.139590
      16A     -1.017168    17A     -0.957860    18A     -0.916357
      19A     -0.871354    20A     -0.840322    21A     -0.741197
      22A     -0.735376    23A     -0.675441    24A     -0.653344
      25A     -0.598030    26A     -0.547554    27A     -0.538587
      28A     -0.511226    29A     -0.485488    30A     -0.483431
      31A     -0.476031    32A     -0.441008    33A     -0.431655
      34A     -0.424984    35A     -0.397367    36A     -0.384903
      37A     -0.378552    38A     -0.347278    39A     -0.324050
      40A     -0.305688    41A     -0.248135    42A     -0.237292
      43A     -0.229930    44A     -0.205085    45A     -0.109212

  @DF-RHF Final Energy:  -550.73007279844853

   => Energetics <=

    Nuclear Repulsion Energy =            682.1378058672174802
    One-Electron Energy =               -2114.0971201916713653
    Two-Electron Energy =                 881.2292415260052394
    DFT Exchange-Correlation Energy =       0.0000000000000000
    Empirical Dispersion Energy =           0.0000000000000000
    PCM Polarization Energy =               0.0000000000000000
    EFP Energy =                            0.0000000000000000
    Total Energy =                       -550.7300727984485320
  Basis Set: (AUG-CC-PVTZ AUX)
    Blend: AUG-CC-PVTZ-RI
    Molecular point group: c1
  Basis Set: AUG-CC-PVTZ
    Blend: AUG-CC-PVTZ
  Basis Set: (AUG-CC-PVTZ AUX)
    Blend: AUG-CC-PVTZ-JKFIT
  Basis Set: (AUG-CC-PVTZ AUX)
    Blend: AUG-CC-PVTZ-JKFIT
	 Reference Energy          =    -550.7300727984485320 [Eh]
	 Singles Energy            =      -0.0000000000000005 [Eh]
	 Same-Spin Energy          =      -0.6122094339676659 [Eh]
	 Opposite-Spin Energy      =      -1.8370237302440211 [Eh]
	 Correlation Energy        =      -2.4492331642116874 [Eh]
	 Total Energy              =    -553.1793059626602371 [Eh]

	 ================> DF-SCS-MP2 Energies <==================
	-----------------------------------------------------------
	 SCS Same-Spin Scale       =       0.3333333333333333 [-]
	 SCS Opposite-Spin Scale   =       1.2000000000000000 [-]
	 SCS Same-Spin Energy      =      -0.2040698113225553 [Eh]
	 SCS Opposite-Spin Energy  =      -2.2044284762928252 [Eh]
	 SCS Correlation Energy    =      -2.4084982876153811 [Eh]
	 SCS Total Energy          =    -553.1385710860639620 [Eh]
	-----------------------------------------------------------

  -Total Gradient:
     Atom            X                  Y                   Z
    ------   -----------------  -----------------  -----------------
       1        0.000122437845     0.000171080333     0.000006250098
       2       -0.000010375738    -0.000038042373    -0.000016750951
       3        0.000010852045    -0.000012953264     0.000002358539
       4        0.000023765534     0.000025884069    -0.000013057152
       5        0.000062211076     0.000184098037    -0.000031984418
       6       -0.000022292854    -0.000038628885     0.000010792258
       7       -0.000017522706    -0.000060847223    -0.000007049138
       8        0.000037071704     0.000048131735    -0.000007582582
       9       -0.000054101177    -0.000159897044    -0.000048439786
      10       -0.000052826615    -0.000126075376     0.000060732501
      11       -0.000084445115    -0.000002121111     0.000037910031
      12       -0.000001652032     0.000002230328     0.000001346896
      13        0.000025367163     0.000001481756    -0.000011149797
      14       -0.000022437909     0.000002436689    -0.000010770345
      15       -0.000006644558    -0.000002775384     0.000022805299
      16       -0.000004339402    -0.000006899438    -0.000015995625
      17        0.000015885098     0.000003728413     0.000008798290
      18       -0.000004226729     0.000001020780     0.000003440934
      19       -0.000009331436     0.000002997534     0.000003324093
      20       -0.000000321603     0.000013017413    -0.000000731693
      21       -0.000007072611    -0.000007866985     0.000005752542

  **** Optimization is complete! (in 7 steps) ****
    Final optimized geometry and variables:
    Molecular point group: c1

    Geometry (in Angstrom), charge = -1, multiplicity = 1:

    C           -1.310181579317     0.725040379183    -0.535333617059
    C           -0.320350129221     0.135885515680     1.552108493772
    C           -2.374505746584     1.296948817637     0.121779863184
    C           -1.382768559022     0.695401409144     2.222824022162
    C            2.085167157062    -0.796179957278     0.085525601546
    C            0.852670779186    -0.762907334502    -1.918904361051
    C            3.128328790881    -1.363258191740    -0.622093901729
    C            1.948793743873    -1.325369474864    -2.545492582252
    C           -0.239387455491     0.123407364137     0.148646670644
    C            0.875290134209    -0.466620999126    -0.546479787743
    C           -2.488671753343     1.320341660103     1.553059548813
    N            3.097623525149    -1.639551692115    -1.932454649595
    O           -3.464395071031     1.839340595684     2.162221679883
    H           -1.293042302133     0.771982710513    -1.616402163923
    H            0.460343999157    -0.334970041531     2.135230502506
    H           -3.170902975386     1.764847519855    -0.441589164718
    H           -1.415272423895     0.669276239674     3.303945497720
    H            2.224970616703    -0.592004765322     1.135761365006
    H           -0.034083050580    -0.572134859001    -2.503304505746
    H            4.050366314361    -1.604147724424    -0.107287065491
    H            1.900143309340    -1.545165274671    -3.604987698377

*** Psi4 exiting successfully. Buy a developer a beer!
