                               Psi4 1.1 release

  ==> Input File <==

--------------------------------------------------------------------------

memory 5 Gb

molecule phepyrFOH_cation {
  symmetry C1
  1 1
  C      1.885   -1.036   -0.112
  C      0.807   -0.463   0.561
  C      4.830   -1.443   -0.930
  C      4.321   -3.578   0.063
  C      1.800   -1.079   2.676
  C      5.894   -2.040   -1.592
  C      5.398   -4.120   -0.624
  C      2.921   -1.631   0.608
  C      4.038   -2.225   -0.095
  C      0.764   -0.484   1.955
  C      2.878   -1.652   2.002
  N      6.144   -3.345   -1.422
  O      -0.289   0.076   2.612
  F      3.866   -2.220   2.709
  H      1.904   -1.012   -1.199
  H      0.002   -0.002   -0.006
  H      4.632   -0.385   -1.072
  H      3.719   -4.212   0.708
  H      1.772   -1.099   3.762
  H      6.561   -1.511   -2.259
  H      5.691   -5.159   -0.561
  H      6.930   -3.764   -1.918
  H      -0.221   1.044   2.593
  units Angstrom
}

dih_string = "2 10 13 23 285"
set optking fixed_dihedral = $dih_string

optimize('MP2/aug-cc-PVTZ')
--------------------------------------------------------------------------

    Molecular point group: c1
  Charge       = 1
  Multiplicity = 1
  Basis Set: AUG-CC-PVTZ
    Blend: AUG-CC-PVTZ
  Basis Set: (AUG-CC-PVTZ AUX)
    Blend: AUG-CC-PVTZ-JKFIT
  @DF-RHF Final Energy:  -650.55459212020196
    Total Energy =                       -650.5545921202019599
  Basis Set: (AUG-CC-PVTZ AUX)
    Blend: AUG-CC-PVTZ-RI
    Molecular point group: c1
  Basis Set: AUG-CC-PVTZ
    Blend: AUG-CC-PVTZ
  Basis Set: (AUG-CC-PVTZ AUX)
    Blend: AUG-CC-PVTZ-JKFIT
  Basis Set: (AUG-CC-PVTZ AUX)
    Blend: AUG-CC-PVTZ-JKFIT
	 Reference Energy          =    -650.5545921202019599 [Eh]
	 Singles Energy            =      -0.0000000000000003 [Eh]
	 Same-Spin Energy          =      -0.6686505770717887 [Eh]
	 Opposite-Spin Energy      =      -2.0132538311245187 [Eh]
	 Correlation Energy        =      -2.6819044081963077 [Eh]
	 Total Energy              =    -653.2364965283982201 [Eh]
	 SCS Total Energy          =    -653.1933802432420180 [Eh]
  @DF-RHF Final Energy:  -650.55944679404411
    Total Energy =                       -650.5594467940441064
  @DF-RHF Final Energy:  -650.56059273546157
    Total Energy =                       -650.5605927354615687
  @DF-RHF Final Energy:  -650.56096460088611
    Total Energy =                       -650.5609646008861091
  @DF-RHF Final Energy:  -650.56125750833939
    Total Energy =                       -650.5612575083393949
  @DF-RHF Final Energy:  -650.56160897955499
    Total Energy =                       -650.5616089795548760
  @DF-RHF Final Energy:  -650.56197904997396
    Total Energy =                       -650.5619790499740702
  @DF-RHF Final Energy:  -650.56231387189769
    Total Energy =                       -650.5623138718976861
  @DF-RHF Final Energy:  -650.56258457886111
    Total Energy =                       -650.5625845788611059
  @DF-RHF Final Energy:  -650.56278302161240
    Total Energy =                       -650.5627830216124039
  @DF-RHF Final Energy:  -650.56290245721539
    Total Energy =                       -650.5629024572153867
  @DF-RHF Final Energy:  -650.56294038416468
    Total Energy =                       -650.5629403841646763
  @DF-RHF Final Energy:  -650.56289300904416
    Total Energy =                       -650.5628930090440463
  @DF-RHF Final Energy:  -650.56294180282998
    Total Energy =                       -650.5629418028299824
  @DF-RHF Final Energy:  -650.56294754755152
    Total Energy =                       -650.5629475475516301
  Charge       = 1
  Multiplicity = 1
  Basis Set: AUG-CC-PVTZ
    Blend: AUG-CC-PVTZ
  Basis Set: (AUG-CC-PVTZ AUX)
    Blend: AUG-CC-PVTZ-JKFIT

    Orbital Energies (a.u.)
    -----------------------

    Doubly Occupied:

       1A    -26.444265     2A    -20.697827     3A    -15.833970
       4A    -11.483814     5A    -11.481722     6A    -11.470669
       7A    -11.456430     8A    -11.438369     9A    -11.415546
      10A    -11.412095    11A    -11.388185    12A    -11.386779
      13A    -11.359135    14A    -11.358084    15A     -1.764482
      16A     -1.518988    17A     -1.511697    18A     -1.325612
      19A     -1.276430    20A     -1.241371    21A     -1.170279
      22A     -1.159626    23A     -1.067918    24A     -1.064921
      25A     -0.988749    26A     -0.975997    27A     -0.963159
      28A     -0.894189    29A     -0.877601    30A     -0.866753
      31A     -0.839516    32A     -0.833170    33A     -0.819753
      34A     -0.810381    35A     -0.794766    36A     -0.776071
      37A     -0.760323    38A     -0.759532    39A     -0.741381
      40A     -0.720394    41A     -0.707048    42A     -0.675215
      43A     -0.659982    44A     -0.646510    45A     -0.608779
      46A     -0.581157    47A     -0.540637    48A     -0.476577
      49A     -0.458313

  @DF-RHF Final Energy:  -650.56295043585260

   => Energetics <=

    Nuclear Repulsion Energy =            830.7223349518019404
    One-Electron Energy =               -2521.5622371954887058
    Two-Electron Energy =                1040.2769518078341662
    DFT Exchange-Correlation Energy =       0.0000000000000000
    Empirical Dispersion Energy =           0.0000000000000000
    PCM Polarization Energy =               0.0000000000000000
    EFP Energy =                            0.0000000000000000
    Total Energy =                       -650.5629504358525992
  Basis Set: (AUG-CC-PVTZ AUX)
    Blend: AUG-CC-PVTZ-RI
    Molecular point group: c1
  Basis Set: AUG-CC-PVTZ
    Blend: AUG-CC-PVTZ
  Basis Set: (AUG-CC-PVTZ AUX)
    Blend: AUG-CC-PVTZ-JKFIT
  Basis Set: (AUG-CC-PVTZ AUX)
    Blend: AUG-CC-PVTZ-JKFIT
	 Reference Energy          =    -650.5629504358525992 [Eh]
	 Singles Energy            =      -0.0000000000000001 [Eh]
	 Same-Spin Energy          =      -0.6685732871144494 [Eh]
	 Opposite-Spin Energy      =      -2.0121371941642590 [Eh]
	 Correlation Energy        =      -2.6807104812787084 [Eh]
	 Total Energy              =    -653.2436609171312512 [Eh]

	 ================> DF-SCS-MP2 Energies <==================
	-----------------------------------------------------------
	 SCS Same-Spin Scale       =       0.3333333333333333 [-]
	 SCS Opposite-Spin Scale   =       1.2000000000000000 [-]
	 SCS Same-Spin Energy      =      -0.2228577623714831 [Eh]
	 SCS Opposite-Spin Energy  =      -2.4145646329971107 [Eh]
	 SCS Correlation Energy    =      -2.6374223953685938 [Eh]
	 SCS Total Energy          =    -653.2003728312212161 [Eh]
	-----------------------------------------------------------

  -Total Gradient:
     Atom            X                  Y                   Z
    ------   -----------------  -----------------  -----------------
       1        0.000008002202    -0.000016131477     0.000017055083
       2       -0.001070202133    -0.001862937447    -0.000454858137
       3       -0.000017100314    -0.000016611748     0.000025673331
       4       -0.000005341336     0.000029629299    -0.000012645703
       5        0.000004333309     0.000007706460    -0.000009159609
       6        0.000006084452    -0.000007154639    -0.000004689287
       7        0.000011788829    -0.000001724497    -0.000004613015
       8        0.000000001218     0.000024424788     0.000015146063
       9        0.000026180183    -0.000019390426    -0.000024073683
      10        0.001971615573     0.002707114512     0.001339576747
      11        0.000010170770    -0.000010081305    -0.000012606024
      12       -0.000028165974     0.000014858855     0.000015237070
      13       -0.002168825608    -0.000364968389    -0.003457786762
      14       -0.000014141811     0.000004104930     0.000007055990
      15       -0.000010362540     0.000006617721    -0.000008391275
      16       -0.000001901021     0.000004035162    -0.000004266913
      17        0.000003646798     0.000010376523    -0.000009314085
      18        0.000001429014    -0.000020460026     0.000005506873
      19       -0.000000334335    -0.000001537959     0.000003609483
      20       -0.000004718240     0.000005737207    -0.000000793815
      21       -0.000003440926    -0.000001182465     0.000006019935
      22        0.000002576134    -0.000001061801     0.000001603309
      23        0.001278705738    -0.000491363274     0.002566714431

  **** Optimization is complete! (in 16 steps) ****
    Final optimized geometry and variables:
    Molecular point group: c1

    Geometry (in Angstrom), charge = 1, multiplicity = 1:

    C           -1.146907008950     1.047467233455    -0.721686802748
    C           -2.226554783829     1.618815356701    -0.081896779282
    C            1.480258028011     0.263383359434    -1.799620755147
    C            1.352083814592    -1.670277811434    -0.400562833295
    C           -1.559039211593     0.564851939920     1.977853141264
    C            2.524759701639    -0.313563389442    -2.477924679745
    C            2.397682324429    -2.219855170181    -1.100907044820
    C           -0.256499468986     0.206445045547    -0.042958596071
    C            0.859367782101    -0.402810210046    -0.736263273431
    C           -2.423338130186     1.394749627941     1.278355005185
    C           -0.504626839613    -0.013183791335     1.311112618527
    N            2.952454677364    -1.532097616561    -2.111455221227
    O           -3.524823874247     1.873988423480     1.919394166116
    F            0.342604809527    -0.784372835081     2.013572958751
    H           -1.022499927992     1.205008557333    -1.782431667306
    H           -2.931434246808     2.227217268774    -0.625637144099
    H            1.167941403659     1.254436599687    -2.085128030901
    H            0.909932518148    -2.243356200363     0.395325135714
    H           -1.707981312789     0.377194660424     3.028609802865
    H            3.042088348449     0.161542968532    -3.294551674803
    H            2.806944328666    -3.193812041862    -0.890636364886
    H            3.725780905737    -1.947719612526    -2.615199525562
    H           -3.450016743151     2.823647318218     2.060751199989

*** Psi4 exiting successfully. Buy a developer a beer!
