                               Psi4 1.1 release

  ==> Input File <==

--------------------------------------------------------------------------

memory 5 Gb

molecule phepyrOH_anion {
  symmetry C1
  -1 1
  C      1.885   -1.036   -0.112
  C      2.878   -1.652   2.002
  C      0.807   -0.463   0.561
  C      1.800   -1.079   2.676
  C      3.952   -2.489   -1.452
  C      5.208   -2.535   0.599
  C      5.052   -3.058   -2.075
  C      6.251   -3.102   -0.116
  C      2.921   -1.631   0.608
  C      4.040   -2.226   -0.090
  C      0.764   -0.484   1.955
  N      6.203   -3.373   -1.439
  O      -0.227   0.042   2.574
  H      1.904   -1.011   -1.199
  H      3.678   -2.112   2.577
  H      0.011   -0.006   -0.025
  H      1.791   -1.108   3.764
  H      3.058   -2.261   -2.024
  H      5.312   -2.344   1.662
  H      5.035   -3.282   -3.137
  H      7.182   -3.362   0.375
  units Angstrom
}

dih_string = "1 9 10 5 345"
set optking fixed_dihedral = $dih_string

optimize('MP2/aug-cc-PVTZ')
--------------------------------------------------------------------------

    Molecular point group: c1
  Charge       = -1
  Multiplicity = 1
  Basis Set: AUG-CC-PVTZ
    Blend: AUG-CC-PVTZ
  Basis Set: (AUG-CC-PVTZ AUX)
    Blend: AUG-CC-PVTZ-JKFIT
  @DF-RHF Final Energy:  -550.71379695564576
    Total Energy =                       -550.7137969556457620
  Basis Set: (AUG-CC-PVTZ AUX)
    Blend: AUG-CC-PVTZ-RI
    Molecular point group: c1
  Basis Set: AUG-CC-PVTZ
    Blend: AUG-CC-PVTZ
  Basis Set: (AUG-CC-PVTZ AUX)
    Blend: AUG-CC-PVTZ-JKFIT
  Basis Set: (AUG-CC-PVTZ AUX)
    Blend: AUG-CC-PVTZ-JKFIT
	 Reference Energy          =    -550.7137969556457620 [Eh]
	 Singles Energy            =      -0.0000000000000001 [Eh]
	 Same-Spin Energy          =      -0.6143354970187320 [Eh]
	 Opposite-Spin Energy      =      -1.8396625784831913 [Eh]
	 Correlation Energy        =      -2.4539980755019233 [Eh]
	 Total Energy              =    -553.1677950311476479 [Eh]
	 SCS Total Energy          =    -553.1261705488318512 [Eh]
  @DF-RHF Final Energy:  -550.72227753088771
    Total Energy =                       -550.7222775308877090
  @DF-RHF Final Energy:  -550.72750251971206
    Total Energy =                       -550.7275025197120613
  @DF-RHF Final Energy:  -550.72982486643332
    Total Energy =                       -550.7298248664333187
  @DF-RHF Final Energy:  -550.73008123949944
    Total Energy =                       -550.7300812394994409
  @DF-RHF Final Energy:  -550.73007741062133
    Total Energy =                       -550.7300774106213339
  Charge       = -1
  Multiplicity = 1
  Basis Set: AUG-CC-PVTZ
    Blend: AUG-CC-PVTZ
  Basis Set: (AUG-CC-PVTZ AUX)
    Blend: AUG-CC-PVTZ-JKFIT

    Orbital Energies (a.u.)
    -----------------------

    Doubly Occupied:

       1A    -20.324853     2A    -15.440521     3A    -11.159896
       4A    -11.159880     5A    -11.146926     6A    -11.137332
       7A    -11.112088     8A    -11.112065     9A    -11.103531
      10A    -11.103516    11A    -11.078893    12A    -11.065469
      13A    -11.065453    14A     -1.155405    15A     -1.139587
      16A     -1.017166    17A     -0.957860    18A     -0.916354
      19A     -0.871359    20A     -0.840323    21A     -0.741196
      22A     -0.735377    23A     -0.675444    24A     -0.653347
      25A     -0.598034    26A     -0.547551    27A     -0.538591
      28A     -0.511229    29A     -0.485487    30A     -0.483434
      31A     -0.476029    32A     -0.441010    33A     -0.431658
      34A     -0.424990    35A     -0.397364    36A     -0.384909
      37A     -0.378557    38A     -0.347277    39A     -0.324058
      40A     -0.305685    41A     -0.248133    42A     -0.237290
      43A     -0.229935    44A     -0.205087    45A     -0.109213

  @DF-RHF Final Energy:  -550.73007397556262

   => Energetics <=

    Nuclear Repulsion Energy =            682.1367665199360317
    One-Electron Energy =               -2114.0949555966412845
    Two-Electron Energy =                 881.2281151011427482
    DFT Exchange-Correlation Energy =       0.0000000000000000
    Empirical Dispersion Energy =           0.0000000000000000
    PCM Polarization Energy =               0.0000000000000000
    EFP Energy =                            0.0000000000000000
    Total Energy =                       -550.7300739755626182
  Basis Set: (AUG-CC-PVTZ AUX)
    Blend: AUG-CC-PVTZ-RI
    Molecular point group: c1
  Basis Set: AUG-CC-PVTZ
    Blend: AUG-CC-PVTZ
  Basis Set: (AUG-CC-PVTZ AUX)
    Blend: AUG-CC-PVTZ-JKFIT
  Basis Set: (AUG-CC-PVTZ AUX)
    Blend: AUG-CC-PVTZ-JKFIT
	 Reference Energy          =    -550.7300739755626182 [Eh]
	 Singles Energy            =      -0.0000000000000002 [Eh]
	 Same-Spin Energy          =      -0.6122084552696596 [Eh]
	 Opposite-Spin Energy      =      -1.8370236060619798 [Eh]
	 Correlation Energy        =      -2.4492320613316396 [Eh]
	 Total Energy              =    -553.1793060368942179 [Eh]

	 ================> DF-SCS-MP2 Energies <==================
	-----------------------------------------------------------
	 SCS Same-Spin Scale       =       0.3333333333333333 [-]
	 SCS Opposite-Spin Scale   =       1.2000000000000000 [-]
	 SCS Same-Spin Energy      =      -0.2040694850898865 [Eh]
	 SCS Opposite-Spin Energy  =      -2.2044283272743757 [Eh]
	 SCS Correlation Energy    =      -2.4084978123642622 [Eh]
	 SCS Total Energy          =    -553.1385717879269350 [Eh]
	-----------------------------------------------------------

  -Total Gradient:
     Atom            X                  Y                   Z
    ------   -----------------  -----------------  -----------------
       1        0.000116927461     0.000174136016     0.000001817171
       2       -0.000009107118    -0.000043367717    -0.000021251143
       3        0.000007932563    -0.000009122891    -0.000001975625
       4        0.000024089153     0.000028824063    -0.000011618828
       5       -0.000083626049    -0.000178797906     0.000029892952
       6        0.000009697901     0.000041897711    -0.000003337216
       7        0.000037061333     0.000042218155    -0.000007296213
       8       -0.000018309980    -0.000061462899    -0.000004354660
       9       -0.000107883670    -0.000318015383    -0.000007845609
      10        0.000113535873     0.000309434538    -0.000023449106
      11       -0.000093662838    -0.000011107448     0.000037715919
      12       -0.000001385135     0.000005868433     0.000001336934
      13        0.000032668881     0.000003768101    -0.000013151406
      14       -0.000021910343     0.000005721838    -0.000001041092
      15       -0.000006264059     0.000001365418     0.000019787097
      16       -0.000000794689    -0.000007684650    -0.000013353848
      17        0.000016977665     0.000004570491     0.000005220016
      18        0.000000445743     0.000002491363     0.000008313813
      19       -0.000007594230     0.000004349434     0.000000623681
      20       -0.000006800187    -0.000006955483     0.000006303466
      21       -0.000001998285     0.000011868822    -0.000002336304

  **** Optimization is complete! (in 7 steps) ****
    Final optimized geometry and variables:
    Molecular point group: c1

    Geometry (in Angstrom), charge = -1, multiplicity = 1:

    C           -1.306909160125     0.731434865239    -0.535316320599
    C           -0.322098578046     0.132837017725     1.551798433521
    C           -2.371206813236     1.303323667962     0.121846330187
    C           -1.384533647879     0.692286469565     2.222538625286
    C            0.854208149816    -0.758259581599    -1.919978562884
    C            2.082876944078    -0.802349669305     0.086573221526
    C            1.949146987288    -1.323430121504    -2.546195862485
    C            3.125001718107    -1.371650535973    -0.620784806699
    C           -0.238733771549     0.124891833909     0.148455088939
    C            0.875900192134    -0.465009342209    -0.546868535700
    C           -2.487915719434     1.321901792334     1.552988504833
    N            3.095618667488    -1.643934436220    -1.932010995978
    O           -3.463578758899     1.840897351809     2.162234711742
    H           -1.287648355253     0.782211001896    -1.616163289836
    H            0.456614238425    -0.341514372366     2.134701281187
    H           -3.165522429047     1.774972721481    -0.441314654288
    H           -1.418975233188     0.662570724402     3.303500879760
    H           -0.030842314616    -0.562616489720    -2.505311653688
    H            2.221411059877    -0.602304417273     1.137760484448
    H            1.901366396708    -1.540372336914    -3.606316806672
    H            4.044935693151    -1.618214713870    -0.104908962041

*** Psi4 exiting successfully. Buy a developer a beer!
