                               Psi4 1.1 release

  ==> Input File <==

--------------------------------------------------------------------------

memory 5 Gb

molecule phepyrF {
  symmetry C1
  0 1
  C      1.885   -1.036   -0.112
  C      0.807   -0.463   0.561
  C      2.921   -1.631   0.608
  C      0.764   -0.484   1.955
  C      3.895   -3.620   3.070
  C      5.056   -1.515   3.136
  C      4.952   -4.165   3.781
  C      6.061   -2.154   3.844
  C      2.878   -1.652   2.002
  C      3.955   -2.270   2.745
  C      1.800   -1.079   2.676
  N      6.038   -3.463   4.178
  F      1.744   -1.089   4.016
  H      1.918   -1.020   -1.198
  H      0.000   -0.000   -0.000
  H      3.755   -2.073   0.068
  H      -0.076   -0.038   2.480
  H      3.053   -4.242   2.782
  H      5.138   -0.459   2.901
  H      4.954   -5.214   4.057
  H      6.940   -1.609   4.173
  units Angstrom
}

dih_string = "3 9 10 5 270"
set optking fixed_dihedral = $dih_string

optimize('MP2/aug-cc-PVTZ')
--------------------------------------------------------------------------

    Molecular point group: c1
  Charge       = 0
  Multiplicity = 1
  Basis Set: AUG-CC-PVTZ
    Blend: AUG-CC-PVTZ
  Basis Set: (AUG-CC-PVTZ AUX)
    Blend: AUG-CC-PVTZ-JKFIT
  @DF-RHF Final Energy:  -575.28244673000631
    Total Energy =                       -575.2824467300063134
  Basis Set: (AUG-CC-PVTZ AUX)
    Blend: AUG-CC-PVTZ-RI
    Molecular point group: c1
  Basis Set: AUG-CC-PVTZ
    Blend: AUG-CC-PVTZ
  Basis Set: (AUG-CC-PVTZ AUX)
    Blend: AUG-CC-PVTZ-JKFIT
  Basis Set: (AUG-CC-PVTZ AUX)
    Blend: AUG-CC-PVTZ-JKFIT
	 Reference Energy          =    -575.2824467300063134 [Eh]
	 Singles Energy            =      -0.0000000000000006 [Eh]
	 Same-Spin Energy          =      -0.6074284166594062 [Eh]
	 Opposite-Spin Energy      =      -1.8319395853198761 [Eh]
	 Correlation Energy        =      -2.4393680019792829 [Eh]
	 Total Energy              =    -577.7218147319855461 [Eh]
	 SCS Total Energy          =    -577.6832503712765856 [Eh]
  @DF-RHF Final Energy:  -575.28819119758737
    Total Energy =                       -575.2881911975873663
  @DF-RHF Final Energy:  -575.28917614879470
    Total Energy =                       -575.2891761487946951
  @DF-RHF Final Energy:  -575.28908349331743
    Total Energy =                       -575.2890834933174347
  @DF-RHF Final Energy:  -575.28902723647309
    Total Energy =                       -575.2890272364730890
  Charge       = 0
  Multiplicity = 1
  Basis Set: AUG-CC-PVTZ
    Blend: AUG-CC-PVTZ
  Basis Set: (AUG-CC-PVTZ AUX)
    Blend: AUG-CC-PVTZ-JKFIT

    Orbital Energies (a.u.)
    -----------------------

    Doubly Occupied:

       1A    -26.315312     2A    -15.565268     3A    -11.335937
       4A    -11.274127     5A    -11.274109     6A    -11.268714
       7A    -11.260234     8A    -11.255818     9A    -11.255222
      10A    -11.250297    11A    -11.246610    12A    -11.240285
      13A    -11.240246    14A     -1.634120    15A     -1.261551
      16A     -1.185305    17A     -1.114907    18A     -1.036975
      19A     -1.036809    20A     -1.028625    21A     -0.891435
      22A     -0.861725    23A     -0.859066    24A     -0.825495
      25A     -0.754943    26A     -0.723548    27A     -0.710512
      28A     -0.702193    29A     -0.670800    30A     -0.670484
      31A     -0.652357    32A     -0.625902    33A     -0.612672
      34A     -0.599463    35A     -0.591545    36A     -0.549296
      37A     -0.534253    38A     -0.531374    39A     -0.516990
      40A     -0.510701    41A     -0.419738    42A     -0.382491
      43A     -0.359393    44A     -0.350864    45A     -0.347218

  @DF-RHF Final Energy:  -575.28903281503699

   => Energetics <=

    Nuclear Repulsion Energy =            714.8666930636906045
    One-Electron Energy =               -2201.6415939047747088
    Two-Electron Energy =                 911.4858680260472283
    DFT Exchange-Correlation Energy =       0.0000000000000000
    Empirical Dispersion Energy =           0.0000000000000000
    PCM Polarization Energy =               0.0000000000000000
    EFP Energy =                            0.0000000000000000
    Total Energy =                       -575.2890328150369896
  Basis Set: (AUG-CC-PVTZ AUX)
    Blend: AUG-CC-PVTZ-RI
    Molecular point group: c1
  Basis Set: AUG-CC-PVTZ
    Blend: AUG-CC-PVTZ
  Basis Set: (AUG-CC-PVTZ AUX)
    Blend: AUG-CC-PVTZ-JKFIT
  Basis Set: (AUG-CC-PVTZ AUX)
    Blend: AUG-CC-PVTZ-JKFIT
	 Reference Energy          =    -575.2890328150369896 [Eh]
	 Singles Energy            =      -0.0000000000000003 [Eh]
	 Same-Spin Energy          =      -0.6065229098960860 [Eh]
	 Opposite-Spin Energy      =      -1.8293994142624981 [Eh]
	 Correlation Energy        =      -2.4359223241585846 [Eh]
	 Total Energy              =    -577.7249551391955720 [Eh]

	 ================> DF-SCS-MP2 Energies <==================
	-----------------------------------------------------------
	 SCS Same-Spin Scale       =       0.3333333333333333 [-]
	 SCS Opposite-Spin Scale   =       1.2000000000000000 [-]
	 SCS Same-Spin Energy      =      -0.2021743032986953 [Eh]
	 SCS Opposite-Spin Energy  =      -2.1952792971149977 [Eh]
	 SCS Correlation Energy    =      -2.3974536004136935 [Eh]
	 SCS Total Energy          =    -577.6864864154506449 [Eh]
	-----------------------------------------------------------

  -Total Gradient:
     Atom            X                  Y                   Z
    ------   -----------------  -----------------  -----------------
       1       -0.000017541929     0.000005162642     0.000017488824
       2        0.000023409881    -0.000013023508    -0.000009962126
       3       -0.000015901361    -0.000009605333    -0.000008649333
       4        0.000011858732    -0.000005282618    -0.000000833383
       5        0.000011859106    -0.000033514945    -0.000018238719
       6        0.000015756601     0.000019675424     0.000017231434
       7       -0.000022895864    -0.000004636409     0.000044826055
       8        0.000027009633     0.000005292046    -0.000020432808
       9        0.000050591468     0.000010566288    -0.000013818442
      10       -0.000057049833     0.000010834556     0.000005335574
      11       -0.000015392380     0.000005042240     0.000017844873
      12       -0.000013291150     0.000008191284    -0.000022050823
      13        0.000003056017    -0.000000233648    -0.000008887465
      14       -0.000000651920     0.000000747128    -0.000002830672
      15       -0.000002906142     0.000002659472     0.000005075910
      16        0.000006611104    -0.000003602052     0.000006671074
      17       -0.000004208472     0.000002265586     0.000000947668
      18        0.000005277965    -0.000003126437    -0.000001472922
      19        0.000003982463    -0.000002271856     0.000002434619
      20       -0.000007150289    -0.000015355655    -0.000017305667
      21       -0.000002423640     0.000020215797     0.000006626320

  **** Optimization is complete! (in 6 steps) ****
    Final optimized geometry and variables:
    Molecular point group: c1

    Geometry (in Angstrom), charge = 0, multiplicity = 1:

    C           -1.393129735690     0.856979419245    -2.667159502314
    C           -2.465020327142     1.423360113251    -1.991322626593
    C           -0.361116210015     0.265330808742    -1.953917592246
    C           -2.506267237367     1.398853801450    -0.604908575219
    C            0.665424073768    -1.740681097630     0.547228930235
    C            1.815050767894     0.337229591102     0.608579724030
    C            1.720720728443    -2.288396959338     1.260864524030
    C            2.822079132583    -0.298096630404     1.319361887061
    C           -0.380063973326     0.228421293906    -0.562013299966
    C            0.705905132601    -0.395130934418     0.206321119846
    C           -1.466244708094     0.803680796095     0.079644174916
    N            2.791214936441    -1.591404388737     1.647963387871
    F           -1.505627194510     0.779633161769     1.423900794313
    H           -1.361077167359     0.875955374836    -3.745076765538
    H           -3.271299065731     1.885332819094    -2.539430728298
    H            0.477338011239    -0.178230353369    -2.469796856286
    H           -3.324949220559     1.830238294816    -0.052284980870
    H           -0.177326028602    -2.351518840528     0.260194810197
    H            1.891245423204     1.387663191106     0.370830594181
    H            1.706765154120    -3.334088374251     1.534115932553
    H            3.693040413587     0.255908590298     1.640044254498

*** Psi4 exiting successfully. Buy a developer a beer!
