                               Psi4 1.1 release

  ==> Input File <==

--------------------------------------------------------------------------

memory 1000 mb

molecule butane {
  symmetry C1
  0 1
  H      1.604   0.760   -8.260
  H      1.745   2.388   -8.880
  H      2.043   1.024   -9.930
  C      2.142   1.395   -8.932
  H      4.169   2.051   -9.210
  H      3.731   1.788   -7.539
  C      3.631   1.416   -8.537
  H      3.665   -0.647   -7.940
  H      4.104   -0.384   -9.610
  C      4.203   -0.012   -8.612
  H      6.239   -0.652   -8.856
  H      5.796   -0.309   -7.202
  H      6.074   1.003   -8.321
  C      5.691   0.009   -8.218
  units Angstrom
}

dih_string = "7 10 14 13 340"
set optking fixed_dihedral = $dih_string

optimize('MP2/aug-cc-pvtz')
--------------------------------------------------------------------------

    Molecular point group: c1
  Charge       = 0
  Multiplicity = 1
  Basis Set: AUG-CC-PVTZ
    Blend: AUG-CC-PVTZ
  Basis Set: (AUG-CC-PVTZ AUX)
    Blend: AUG-CC-PVTZ-JKFIT
  @DF-RHF Final Energy:  -157.34859978864210
    Total Energy =                       -157.3485997886421046
  Basis Set: (AUG-CC-PVTZ AUX)
    Blend: AUG-CC-PVTZ-RI
    Molecular point group: c1
  Basis Set: AUG-CC-PVTZ
    Blend: AUG-CC-PVTZ
  Basis Set: (AUG-CC-PVTZ AUX)
    Blend: AUG-CC-PVTZ-JKFIT
  Basis Set: (AUG-CC-PVTZ AUX)
    Blend: AUG-CC-PVTZ-JKFIT
	 Reference Energy          =    -157.3485997886421046 [Eh]
	 Singles Energy            =      -0.0000000000000001 [Eh]
	 Same-Spin Energy          =      -0.1654612817871393 [Eh]
	 Opposite-Spin Energy      =      -0.6393226644284106 [Eh]
	 Correlation Energy        =      -0.8047839462155498 [Eh]
	 Total Energy              =    -158.1533837348576412 [Eh]
	 SCS Total Energy          =    -158.1709407465519064 [Eh]
  @DF-RHF Final Energy:  -157.35144431407807
    Total Energy =                       -157.3514443140780656
  @DF-RHF Final Energy:  -157.35233940898840
    Total Energy =                       -157.3523394089883993
  @DF-RHF Final Energy:  -157.35266380108155
    Total Energy =                       -157.3526638010815475
  @DF-RHF Final Energy:  -157.35269252364293
    Total Energy =                       -157.3526925236429292
  @DF-RHF Final Energy:  -157.35269551766112
    Total Energy =                       -157.3526955176611182
  Charge       = 0
  Multiplicity = 1
  Basis Set: AUG-CC-PVTZ
    Blend: AUG-CC-PVTZ
  Basis Set: (AUG-CC-PVTZ AUX)
    Blend: AUG-CC-PVTZ-JKFIT

    Orbital Energies (a.u.)
    -----------------------

    Doubly Occupied:

       1A    -11.211669     2A    -11.210867     3A    -11.205946
       4A    -11.205637     5A     -1.073199     6A     -0.980790
       7A     -0.861712     8A     -0.788781     9A     -0.639208
      10A     -0.584813    11A     -0.577972    12A     -0.568474
      13A     -0.512737    14A     -0.495506    15A     -0.470519
      16A     -0.458090    17A     -0.456063

  @DF-RHF Final Energy:  -157.35269723309563

   => Energetics <=

    Nuclear Repulsion Energy =            131.3645350916658572
    One-Electron Energy =                -470.8304933853908096
    Two-Electron Energy =                 182.1132610606293269
    DFT Exchange-Correlation Energy =       0.0000000000000000
    Empirical Dispersion Energy =           0.0000000000000000
    PCM Polarization Energy =               0.0000000000000000
    EFP Energy =                            0.0000000000000000
    Total Energy =                       -157.3526972330956255
  Basis Set: (AUG-CC-PVTZ AUX)
    Blend: AUG-CC-PVTZ-RI
    Molecular point group: c1
  Basis Set: AUG-CC-PVTZ
    Blend: AUG-CC-PVTZ
  Basis Set: (AUG-CC-PVTZ AUX)
    Blend: AUG-CC-PVTZ-JKFIT
  Basis Set: (AUG-CC-PVTZ AUX)
    Blend: AUG-CC-PVTZ-JKFIT
	 Reference Energy          =    -157.3526972330956255 [Eh]
	 Singles Energy            =      -0.0000000000000000 [Eh]
	 Same-Spin Energy          =      -0.1654610279676517 [Eh]
	 Opposite-Spin Energy      =      -0.6397257137121066 [Eh]
	 Correlation Energy        =      -0.8051867416797583 [Eh]
	 Total Energy              =    -158.1578839747753875 [Eh]

	 ================> DF-SCS-MP2 Energies <==================
	-----------------------------------------------------------
	 SCS Same-Spin Scale       =       0.3333333333333333 [-]
	 SCS Opposite-Spin Scale   =       1.2000000000000000 [-]
	 SCS Same-Spin Energy      =      -0.0551536759892172 [Eh]
	 SCS Opposite-Spin Energy  =      -0.7676708564545279 [Eh]
	 SCS Correlation Energy    =      -0.8228245324437452 [Eh]
	 SCS Total Energy          =    -158.1755217655393722 [Eh]
	-----------------------------------------------------------

  -Total Gradient:
     Atom            X                  Y                   Z
    ------   -----------------  -----------------  -----------------
       1        0.000012590981     0.000006751874    -0.000000540651
       2        0.000001252996    -0.000004738905    -0.000003467135
       3        0.000010647559     0.000005208425     0.000009102282
       4       -0.000051194188     0.000003684984    -0.000013075245
       5       -0.000003466149    -0.000004100883    -0.000004761037
       6       -0.000012591783    -0.000020014080    -0.000000752397
       7        0.000644202760     0.000396997234    -0.002215288488
       8        0.000008679832     0.000002716238     0.000007895924
       9        0.000006094354     0.000021539117     0.000000456931
      10       -0.001085569295    -0.000392815055     0.003830385305
      11       -0.000005093917     0.000009223133     0.000000285667
      12       -0.000005183258    -0.000001790527    -0.000007289241
      13       -0.000817925047     0.000623671678     0.003009597606
      14        0.001297555152    -0.000646333236    -0.004612549523

  **** Optimization is complete! (in 7 steps) ****
    Final optimized geometry and variables:
    Molecular point group: c1

    Geometry (in Angstrom), charge = 0, multiplicity = 1:

    H           -2.346998739775     0.082081237090     0.345832269180
    H           -2.193341840422     1.709845746707    -0.306104569998
    H           -1.927681296602     0.314336123458    -1.345548718226
    C           -1.777408102478     0.705635019555    -0.340825352908
    H            0.247588684146     1.349148888053    -0.655447419533
    H           -0.168363770626     1.104035840753     1.024945594278
    C           -0.304796549589     0.696357745019     0.021593378066
    H           -0.269197144588    -1.368214598969     0.594046024365
    H            0.191152184366    -1.063890889391    -1.060044289447
    C            0.303646864803    -0.692357742028    -0.040734414630
    H            2.361994513051    -1.400244861513    -0.244311708221
    H            1.896304256847    -1.001706851542     1.399676699804
    H            2.212383255266     0.283681092256     0.268028975006
    C            1.778235274716    -0.710396915334     0.358196576724

*** Psi4 exiting successfully. Buy a developer a beer!
