                              Psi4 1.0.0 Driver

  ==> Input File <==

--------------------------------------------------------------------------

memory 1000 mb

molecule butane {
  symmetry C1
  0 1
  H      1.604   0.760   -8.260
  H      1.745   2.388   -8.880
  H      2.043   1.024   -9.930
  C      2.142   1.395   -8.932
  H      4.169   2.051   -9.210
  H      3.731   1.788   -7.539
  C      3.631   1.416   -8.537
  H      4.081   -0.495   -7.665
  H      3.682   -0.566   -9.364
  C      4.203   -0.012   -8.612
  H      6.097   -0.940   -9.019
  H      6.222   0.606   -8.216
  H      5.822   0.534   -9.914
  C      5.700   0.052   -8.967
  units Angstrom
}

dih_string = "4 7 10 14 150"
set optking fixed_dihedral = $dih_string

optimize('B3LYP/cc-PVDZ')
--------------------------------------------------------------------------

    Molecular point group: c1
  Charge       = 0
  Multiplicity = 1
  Basis Set: CC-PVDZ
   => B3LYP Composite Functional <=
  Basis Set:
  @DF-RKS Final Energy:  -158.44643922223716
    Total Energy =                       -158.4464392222371600
    Molecular point group: c1
  Basis Set: CC-PVDZ
  Basis Set:
   => B3LYP Composite Functional <=
  Basis Set: CC-PVDZ
   => B3LYP Composite Functional <=
  Basis Set:
  @DF-RKS Final Energy:  -158.45235541848939
    Total Energy =                       -158.4523554184893896
  Basis Set: CC-PVDZ
  Basis Set:
   => B3LYP Composite Functional <=
  Basis Set: CC-PVDZ
   => B3LYP Composite Functional <=
  Basis Set:
  @DF-RKS Final Energy:  -158.45512577299868
    Total Energy =                       -158.4551257729986844
  Basis Set: CC-PVDZ
  Basis Set:
  @DF-RKS Final Energy:  -158.45600683645048
    Total Energy =                       -158.4560068364504843
   => B3LYP Composite Functional <=
  Basis Set:
  @DF-RKS Final Energy:  -158.45628111749801
    Total Energy =                       -158.4562811174980084
  Basis Set: CC-PVDZ
  Basis Set:
   => B3LYP Composite Functional <=
  Basis Set: CC-PVDZ
   => B3LYP Composite Functional <=
  Basis Set:
  @DF-RKS Final Energy:  -158.45633720803957
    Total Energy =                       -158.4563372080395709
  Basis Set: CC-PVDZ
  Basis Set:
   => B3LYP Composite Functional <=
  Charge       = 0
  Multiplicity = 1
  Basis Set: CC-PVDZ
   => B3LYP Composite Functional <=
  Basis Set:

    Orbital Energies (a.u.)
    -----------------------

    Doubly Occupied:

       1A    -10.180125     2A    -10.179967     3A    -10.176114
       4A    -10.176110     5A     -0.789578     6A     -0.720508
       7A     -0.627118     8A     -0.572013     9A     -0.461675
      10A     -0.421440    11A     -0.421233    12A     -0.402506
      13A     -0.364483    14A     -0.352709    15A     -0.327641
      16A     -0.320518    17A     -0.318002

  @DF-RKS Final Energy:  -158.45633998927912

   => Energetics <=

    Nuclear Repulsion Energy =            129.8926360442196994
    One-Electron Energy =                -468.2769251001353723
    Two-Electron Energy =                 200.5105746162919900
    DFT Exchange-Correlation Energy =     -20.5826255496553969
    Empirical Dispersion Energy =           0.0000000000000000
    PCM Polarization Energy =               0.0000000000000000
    EFP Energy =                            0.0000000000000000
    Total Energy =                       -158.4563399892791153
    Molecular point group: c1
  Basis Set: CC-PVDZ
  Basis Set:
   => B3LYP Composite Functional <=

  -Total Gradient:
     Atom            X                  Y                   Z
    ------   -----------------  -----------------  -----------------
       1        0.000011426008     0.000006682408    -0.000007264622
       2       -0.000001526112    -0.000003320008    -0.000007005687
       3       -0.000022063236     0.000003956803    -0.000002332843
       4        0.000789276567     0.000491807818    -0.002919257512
       5       -0.000004590858    -0.000015011990     0.000030709647
       6        0.000000312777    -0.000003363140     0.000011358381
       7       -0.001334739825    -0.000714455375     0.002870204907
       8       -0.000000493880     0.000002285291     0.000011495301
       9        0.000004153204     0.000011885449     0.000032482016
      10        0.001267013295     0.000379462131     0.002963451842
      11        0.000001551598     0.000004306809    -0.000006399941
      12       -0.000011454327    -0.000006084846    -0.000008245433
      13        0.000021908931    -0.000003891428    -0.000001934991
      14       -0.000720691926    -0.000153854946    -0.002974323107

  **** Optimization is complete! (in 7 steps) ****
    Final optimized geometry and variables:
    Molecular point group: c1

    Geometry (in Angstrom), charge = 0, multiplicity = 1:

    H           -2.397111840914     0.023878650200     0.504589895663
    H           -2.247830036456     1.699695047034    -0.073393806784
    H           -1.957968751155     0.341794251392    -1.189020803021
    C           -1.811651225577     0.690439271381    -0.152548680806
    H            0.207753429247     1.364298290006    -0.469314159918
    H           -0.186124795739     1.116464157400     1.229772085873
    C           -0.327330163679     0.686490765699     0.221945106132
    H            0.159254263051    -1.249747117741     1.098294966396
    H           -0.195102011465    -1.301560355748    -0.626583985232
    C            0.323041117190    -0.707766593654     0.149632261930
    H            2.251163606194    -1.683172728529    -0.215132410358
    H            2.384894863746    -0.084456217560     0.553585682433
    H            1.985250991201    -0.206457227882    -1.174892774133
    C            1.815589236721    -0.670905027951    -0.188617960882

*** Psi4 exiting successfully. Buy a developer a beer!
