                               Psi4 1.1 release

  ==> Input File <==

--------------------------------------------------------------------------

memory 1000 mb

molecule butane {
  symmetry C1
  0 1
  H      1.604   0.760   -8.260
  H      1.745   2.388   -8.880
  H      2.043   1.024   -9.930
  C      2.142   1.395   -8.932
  H      4.169   2.051   -9.210
  H      3.731   1.788   -7.539
  C      3.631   1.416   -8.537
  H      3.665   -0.647   -7.940
  H      4.104   -0.384   -9.610
  C      4.203   -0.012   -8.612
  H      6.171   -0.871   -8.591
  H      5.778   0.038   -7.152
  H      6.160   0.875   -8.636
  C      5.691   0.009   -8.218
  units Angstrom
}

dih_string = "7 10 14 13 320"
set optking fixed_dihedral = $dih_string

optimize('MP2/aug-cc-pvtz')
--------------------------------------------------------------------------

    Molecular point group: c1
  Charge       = 0
  Multiplicity = 1
  Basis Set: AUG-CC-PVTZ
    Blend: AUG-CC-PVTZ
  Basis Set: (AUG-CC-PVTZ AUX)
    Blend: AUG-CC-PVTZ-JKFIT
  @DF-RHF Final Energy:  -157.35141531389826
    Total Energy =                       -157.3514153138982579
  Basis Set: (AUG-CC-PVTZ AUX)
    Blend: AUG-CC-PVTZ-RI
    Molecular point group: c1
  Basis Set: AUG-CC-PVTZ
    Blend: AUG-CC-PVTZ
  Basis Set: (AUG-CC-PVTZ AUX)
    Blend: AUG-CC-PVTZ-JKFIT
  Basis Set: (AUG-CC-PVTZ AUX)
    Blend: AUG-CC-PVTZ-JKFIT
	 Reference Energy          =    -157.3514153138982579 [Eh]
	 Singles Energy            =      -0.0000000000000000 [Eh]
	 Same-Spin Energy          =      -0.1654000042315305 [Eh]
	 Opposite-Spin Energy      =      -0.6388811727773036 [Eh]
	 Correlation Energy        =      -0.8042811770088342 [Eh]
	 Total Energy              =    -158.1556964909071041 [Eh]
	 SCS Total Energy          =    -158.1732060559748732 [Eh]
  @DF-RHF Final Energy:  -157.35410925562752
    Total Energy =                       -157.3541092556275203
  @DF-RHF Final Energy:  -157.35494188383393
    Total Energy =                       -157.3549418838339307
  @DF-RHF Final Energy:  -157.35522957522980
    Total Energy =                       -157.3552295752297994
  @DF-RHF Final Energy:  -157.35524479525844
    Total Energy =                       -157.3552447952584430
  Charge       = 0
  Multiplicity = 1
  Basis Set: AUG-CC-PVTZ
    Blend: AUG-CC-PVTZ
  Basis Set: (AUG-CC-PVTZ AUX)
    Blend: AUG-CC-PVTZ-JKFIT

    Orbital Energies (a.u.)
    -----------------------

    Doubly Occupied:

       1A    -11.211513     2A    -11.210824     3A    -11.206046
       4A    -11.205914     5A     -1.074198     6A     -0.981850
       7A     -0.861126     8A     -0.788305     9A     -0.640436
      10A     -0.586045    11A     -0.577893    12A     -0.567511
      13A     -0.514470    14A     -0.493948    15A     -0.470304
      16A     -0.460277    17A     -0.456744

  @DF-RHF Final Energy:  -157.35525088976951

   => Energetics <=

    Nuclear Repulsion Energy =            131.5170460555857233
    One-Electron Energy =                -471.1297875905215733
    Two-Electron Energy =                 182.2574906451663139
    DFT Exchange-Correlation Energy =       0.0000000000000000
    Empirical Dispersion Energy =           0.0000000000000000
    PCM Polarization Energy =               0.0000000000000000
    EFP Energy =                            0.0000000000000000
    Total Energy =                       -157.3552508897695077
  Basis Set: (AUG-CC-PVTZ AUX)
    Blend: AUG-CC-PVTZ-RI
    Molecular point group: c1
  Basis Set: AUG-CC-PVTZ
    Blend: AUG-CC-PVTZ
  Basis Set: (AUG-CC-PVTZ AUX)
    Blend: AUG-CC-PVTZ-JKFIT
  Basis Set: (AUG-CC-PVTZ AUX)
    Blend: AUG-CC-PVTZ-JKFIT
	 Reference Energy          =    -157.3552508897695077 [Eh]
	 Singles Energy            =      -0.0000000000000000 [Eh]
	 Same-Spin Energy          =      -0.1654702606981570 [Eh]
	 Opposite-Spin Energy      =      -0.6393387848511904 [Eh]
	 Correlation Energy        =      -0.8048090455493475 [Eh]
	 Total Energy              =    -158.1600599353188557 [Eh]

	 ================> DF-SCS-MP2 Energies <==================
	-----------------------------------------------------------
	 SCS Same-Spin Scale       =       0.3333333333333333 [-]
	 SCS Opposite-Spin Scale   =       1.2000000000000000 [-]
	 SCS Same-Spin Energy      =      -0.0551567535660523 [Eh]
	 SCS Opposite-Spin Energy  =      -0.7672065418214286 [Eh]
	 SCS Correlation Energy    =      -0.8223632953874809 [Eh]
	 SCS Total Energy          =    -158.1776141851569832 [Eh]
	-----------------------------------------------------------

  -Total Gradient:
     Atom            X                  Y                   Z
    ------   -----------------  -----------------  -----------------
       1        0.000009609502    -0.000000837995     0.000003139390
       2       -0.000008312812    -0.000002854906    -0.000004882470
       3       -0.000009679839    -0.000001952061     0.000004215833
       4        0.000017653912     0.000017420315    -0.000027397600
       5       -0.000016160868     0.000000183380     0.000015934627
       6        0.000012104276     0.000002979350     0.000002004899
       7        0.000507659337     0.000313725175    -0.001872779980
       8       -0.000016280593    -0.000001687934     0.000005517692
       9        0.000006847813    -0.000012394164     0.000024501211
      10       -0.000853125468    -0.000074978853     0.003163153306
      11        0.000012866307    -0.000004002767    -0.000010742869
      12       -0.000010860762    -0.000005185874    -0.000027151505
      13       -0.000616171900     0.001401181341     0.002251429238
      14        0.000963851095    -0.001631595008    -0.003526941774

  **** Optimization is complete! (in 6 steps) ****
    Final optimized geometry and variables:
    Molecular point group: c1

    Geometry (in Angstrom), charge = 0, multiplicity = 1:

    H           -2.344680278707     0.065452068093     0.341777769117
    H           -2.201769474092     1.694300847394    -0.309382981649
    H           -1.926106634257     0.301268608012    -1.349181375864
    C           -1.778798667765     0.693043098636    -0.344243499273
    H            0.241116857506     1.351196551959    -0.657097978395
    H           -0.173880439084     1.102025136439     1.022932557508
    C           -0.306245021382     0.693479217145     0.019413574599
    H           -0.257776509425    -1.372125669972     0.591840508973
    H            0.210995418201    -1.065383026957    -1.062456926868
    C            0.310514006614    -0.690804379956    -0.042389853619
    H            2.290700100430    -1.592936631048     0.030724802401
    H            1.869766424272    -0.642361789165     1.448514591290
    H            2.288658354794     0.174155980230    -0.037214038757
    C            1.774779638289    -0.697027442781     0.365501694637

*** Psi4 exiting successfully. Buy a developer a beer!
