                              Psi4 1.0.0 Driver

  ==> Input File <==

--------------------------------------------------------------------------

memory 1000 mb

molecule butane {
  symmetry C1
  0 1
  H      1.604   0.760   -8.260
  H      1.745   2.388   -8.880
  H      2.043   1.024   -9.930
  C      2.142   1.395   -8.932
  H      4.169   2.051   -9.210
  H      3.731   1.788   -7.539
  C      3.631   1.416   -8.537
  H      4.566   -0.301   -7.648
  H      3.434   -0.688   -8.921
  C      4.203   -0.012   -8.612
  H      5.756   -1.042   -9.680
  H      6.128   0.626   -9.320
  H      4.996   0.239   -10.593
  C      5.358   -0.050   -9.629
  units Angstrom
}

dih_string = "4 7 10 14 120"
set optking fixed_dihedral = $dih_string

optimize('MP2/6-31G(d)')
--------------------------------------------------------------------------

    Molecular point group: c1
  Charge       = 0
  Multiplicity = 1
  Basis Set: 6-31G(D)
  Basis Set:
  @DF-RHF Final Energy:  -157.28784910158831
    Total Energy =                       -157.2878491015884492
  Basis Set:
    Molecular point group: c1
  Basis Set: 6-31G(D)
  Basis Set:
  Basis Set:
	 Reference Energy          =    -157.2878491015883071 [Eh]
	 Singles Energy            =      -0.0000000000000000 [Eh]
	 Same-Spin Energy          =      -0.1244268998579071 [Eh]
	 Opposite-Spin Energy      =      -0.4204302422042634 [Eh]
	 Correlation Energy        =      -0.5448571420621705 [Eh]
	 Total Energy              =    -157.8327062436504775 [Eh]
	 SCS Total Energy          =    -157.8338410255194049 [Eh]
  Basis Set: 6-31G(D)
  Basis Set:
  @DF-RHF Final Energy:  -157.29086384464210
    Total Energy =                       -157.2908638446422458
  Basis Set:
  Basis Set: 6-31G(D)
  Basis Set:
  @DF-RHF Final Energy:  -157.29175292725859
    Total Energy =                       -157.2917529272587842
  @DF-RHF Final Energy:  -157.29203531491441
    Total Energy =                       -157.2920353149144148
  @DF-RHF Final Energy:  -157.29202054625696
    Total Energy =                       -157.2920205462569072
	 Singles Energy            =      -0.0000000000000000 [Eh]
	 Same-Spin Energy          =      -0.1242750385058128 [Eh]
	 Opposite-Spin Energy      =      -0.4224324476427267 [Eh]
	 Correlation Energy        =      -0.5467074861485395 [Eh]
	 Total Energy              =    -157.8387280324054984 [Eh]
	 SCS Total Energy          =    -157.8403644962635042 [Eh]
  Charge       = 0
  Multiplicity = 1
  Basis Set: 6-31G(D)
  Basis Set:

    Orbital Energies (a.u.)
    -----------------------

    Doubly Occupied:

       1A    -11.215466     2A    -11.214909     3A    -11.210531
       4A    -11.210524     5A     -1.067638     6A     -0.978932
       7A     -0.860289     8A     -0.785727     9A     -0.628751
      10A     -0.598339    11A     -0.579590    12A     -0.550567
      13A     -0.508244    14A     -0.508191    15A     -0.465843
      16A     -0.454103    17A     -0.453775

  @DF-RHF Final Energy:  -157.29203887569895

   => Energetics <=

    Nuclear Repulsion Energy =            131.0780285081198144
    One-Electron Energy =                -470.1572933408734798
    Two-Electron Energy =                 181.7872259570547442
    DFT Exchange-Correlation Energy =       0.0000000000000000
    Empirical Dispersion Energy =           0.0000000000000000
    PCM Polarization Energy =               0.0000000000000000
    EFP Energy =                            0.0000000000000000
    Total Energy =                       -157.2920388756989212
  Basis Set:
    Molecular point group: c1
  Basis Set: 6-31G(D)
  Basis Set:
  Basis Set:
	 Reference Energy          =    -157.2920388756989496 [Eh]
	 Singles Energy            =      -0.0000000000000000 [Eh]
	 Same-Spin Energy          =      -0.1242727841217412 [Eh]
	 Opposite-Spin Energy      =      -0.4224171220240664 [Eh]
	 Correlation Energy        =      -0.5466899061458076 [Eh]
	 Total Energy              =    -157.8387287818447646 [Eh]

	 ================> DF-SCS-MP2 Energies <==================
	-----------------------------------------------------------
	 SCS Same-Spin Scale       =       0.3333333333333333 [-]
	 SCS Opposite-Spin Scale   =       1.2000000000000000 [-]
	 SCS Same-Spin Energy      =      -0.0414242613739137 [Eh]
	 SCS Opposite-Spin Energy  =      -0.5069005464288796 [Eh]
	 SCS Correlation Energy    =      -0.5483248078027934 [Eh]
	 SCS Total Energy          =    -157.8403636835017494 [Eh]
	-----------------------------------------------------------

  -Total Gradient:
     Atom            X                  Y                   Z
    ------   -----------------  -----------------  -----------------
       1        0.000001934994    -0.000006004174    -0.000003915543
       2       -0.000013353917     0.000001110801     0.000001534467
       3        0.000004152929     0.000006310949     0.000000597140
       4        0.000065597206     0.000025597168    -0.000065195980
       5        0.000000232923     0.000000409836     0.000027569815
       6       -0.000022570074     0.000008867854    -0.000013349434
       7       -0.000079369917     0.000020989385     0.000059959944
       8        0.000014713637    -0.000010504902    -0.000021474135
       9        0.000012387373     0.000001925906     0.000024655300
      10        0.000098667417    -0.000017795909     0.000020824938
      11        0.000011898351    -0.000001071205    -0.000004367055
      12       -0.000004521931     0.000005158791    -0.000002773298
      13       -0.000003508134    -0.000006236980     0.000003226413
      14       -0.000086260858    -0.000028757520    -0.000027292573

  **** Optimization is complete! (in 6 steps) ****
    Final optimized geometry and variables:
    Molecular point group: c1

    Geometry (in Angstrom), charge = 0, multiplicity = 1:

    H           -2.286815209814     0.060119900239     0.696669876249
    H           -2.150365103902     1.713623952898     0.083443496320
    H           -1.857069269357     0.341428826312    -0.993938969469
    C           -1.717401589305     0.710738103592     0.026557907483
    H            0.295231145394     1.406439276837    -0.260628014628
    H           -0.123112230213     1.117037859339     1.412331505598
    C           -0.238407233191     0.713684112225     0.400635982524
    H            0.760754678588    -1.003412937340     1.293071784283
    H           -0.354066771271    -1.416925254552     0.010987593018
    C            0.405335956531    -0.683938538723     0.307613382531
    H            1.993675782925    -1.741548360804    -0.748177266093
    H            2.358252409769    -0.047411875925    -0.393592938983
    H            1.225201519786    -0.453999365108    -1.686984306372
    C            1.562089145309    -0.738413606317    -0.685523180554

*** Psi4 exiting successfully. Buy a developer a beer!
