                               Psi4 1.1 release

  ==> Input File <==

--------------------------------------------------------------------------

memory 5 Gb

molecule phepyrFOH_cation {
  symmetry C1
  1 1
  C      1.885   -1.036   -0.112
  C      0.807   -0.463   0.561
  C      4.830   -1.443   -0.930
  C      4.321   -3.578   0.063
  C      1.800   -1.079   2.676
  C      5.894   -2.040   -1.592
  C      5.398   -4.120   -0.624
  C      2.921   -1.631   0.608
  C      4.038   -2.225   -0.095
  C      0.764   -0.484   1.955
  C      2.878   -1.652   2.002
  N      6.144   -3.345   -1.422
  O      -0.289   0.076   2.612
  F      3.866   -2.220   2.709
  H      1.904   -1.012   -1.199
  H      0.002   -0.002   -0.006
  H      4.632   -0.385   -1.072
  H      3.719   -4.212   0.708
  H      1.772   -1.099   3.762
  H      6.561   -1.511   -2.259
  H      5.691   -5.159   -0.561
  H      6.930   -3.764   -1.918
  H      -0.005   0.411   3.477
  units Angstrom
}

dih_string = "2 10 13 23 210"
set optking fixed_dihedral = $dih_string

optimize('MP2/aug-cc-PVTZ')
--------------------------------------------------------------------------

    Molecular point group: c1
  Charge       = 1
  Multiplicity = 1
  Basis Set: AUG-CC-PVTZ
    Blend: AUG-CC-PVTZ
  Basis Set: (AUG-CC-PVTZ AUX)
    Blend: AUG-CC-PVTZ-JKFIT
  @DF-RHF Final Energy:  -650.55828850707849
    Total Energy =                       -650.5582885070784869
  Basis Set: (AUG-CC-PVTZ AUX)
    Blend: AUG-CC-PVTZ-RI
    Molecular point group: c1
  Basis Set: AUG-CC-PVTZ
    Blend: AUG-CC-PVTZ
  Basis Set: (AUG-CC-PVTZ AUX)
    Blend: AUG-CC-PVTZ-JKFIT
  Basis Set: (AUG-CC-PVTZ AUX)
    Blend: AUG-CC-PVTZ-JKFIT
	 Reference Energy          =    -650.5582885070784869 [Eh]
	 Singles Energy            =      -0.0000000000000004 [Eh]
	 Same-Spin Energy          =      -0.6690279535516217 [Eh]
	 Opposite-Spin Energy      =      -2.0138129228142247 [Eh]
	 Correlation Energy        =      -2.6828408763658467 [Eh]
	 Total Energy              =    -653.2411293834443313 [Eh]
	 SCS Total Energy          =    -653.1978733323061306 [Eh]
  @DF-RHF Final Energy:  -650.56359578052400
    Total Energy =                       -650.5635957805238831
  @DF-RHF Final Energy:  -650.56506273363198
    Total Energy =                       -650.5650627336319758
  @DF-RHF Final Energy:  -650.56553337394212
    Total Energy =                       -650.5655333739421167
  @DF-RHF Final Energy:  -650.56588944907367
    Total Energy =                       -650.5658894490736657
  @DF-RHF Final Energy:  -650.56631377155588
    Total Energy =                       -650.5663137715559969
  @DF-RHF Final Energy:  -650.56679886238589
    Total Energy =                       -650.5667988623858946
  @DF-RHF Final Energy:  -650.56716200115909
    Total Energy =                       -650.5671620011589766
  @DF-RHF Final Energy:  -650.56748399909452
    Total Energy =                       -650.5674839990945202
  @DF-RHF Final Energy:  -650.56773023891196
    Total Energy =                       -650.5677302389119632
  @DF-RHF Final Energy:  -650.56789233943641
    Total Energy =                       -650.5678923394364119
  @DF-RHF Final Energy:  -650.56796959961162
    Total Energy =                       -650.5679695996116152
  @DF-RHF Final Energy:  -650.56796023619438
    Total Energy =                       -650.5679602361942671
  @DF-RHF Final Energy:  -650.56799301691922
    Total Energy =                       -650.5679930169192176
  @DF-RHF Final Energy:  -650.56799056199611
    Total Energy =                       -650.5679905619961119
  Charge       = 1
  Multiplicity = 1
  Basis Set: AUG-CC-PVTZ
    Blend: AUG-CC-PVTZ
  Basis Set: (AUG-CC-PVTZ AUX)
    Blend: AUG-CC-PVTZ-JKFIT

    Orbital Energies (a.u.)
    -----------------------

    Doubly Occupied:

       1A    -26.446548     2A    -20.712152     3A    -15.830595
       4A    -11.481117     5A    -11.479310     6A    -11.474448
       7A    -11.454674     8A    -11.446201     9A    -11.412698
      10A    -11.409343    11A    -11.387714    12A    -11.383198
      13A    -11.362376    14A    -11.353917    15A     -1.766642
      16A     -1.535434    17A     -1.508743    18A     -1.324182
      19A     -1.276052    20A     -1.238745    21A     -1.170668
      22A     -1.160999    23A     -1.066222    24A     -1.063536
      25A     -0.996391    26A     -0.973630    27A     -0.960632
      28A     -0.900223    29A     -0.871971    30A     -0.864868
      31A     -0.855018    32A     -0.833847    33A     -0.819180
      34A     -0.808391    35A     -0.791725    36A     -0.773716
      37A     -0.766759    38A     -0.752550    39A     -0.735222
      40A     -0.723855    41A     -0.705560    42A     -0.685318
      43A     -0.665275    44A     -0.643287    45A     -0.635554
      46A     -0.575497    47A     -0.538712    48A     -0.479282
      49A     -0.449114

  @DF-RHF Final Energy:  -650.56799422935887

   => Energetics <=

    Nuclear Repulsion Energy =            831.0982646179359108
    One-Electron Energy =               -2522.2303297157977795
    Two-Electron Energy =                1040.5640708685029949
    DFT Exchange-Correlation Energy =       0.0000000000000000
    Empirical Dispersion Energy =           0.0000000000000000
    PCM Polarization Energy =               0.0000000000000000
    EFP Energy =                            0.0000000000000000
    Total Energy =                       -650.5679942293588738
  Basis Set: (AUG-CC-PVTZ AUX)
    Blend: AUG-CC-PVTZ-RI
    Molecular point group: c1
  Basis Set: AUG-CC-PVTZ
    Blend: AUG-CC-PVTZ
  Basis Set: (AUG-CC-PVTZ AUX)
    Blend: AUG-CC-PVTZ-JKFIT
  Basis Set: (AUG-CC-PVTZ AUX)
    Blend: AUG-CC-PVTZ-JKFIT
	 Reference Energy          =    -650.5679942293588738 [Eh]
	 Singles Energy            =      -0.0000000000000001 [Eh]
	 Same-Spin Energy          =      -0.6687208982250129 [Eh]
	 Opposite-Spin Energy      =      -2.0121692570610428 [Eh]
	 Correlation Energy        =      -2.6808901552860558 [Eh]
	 Total Energy              =    -653.2488843846449527 [Eh]

	 ================> DF-SCS-MP2 Energies <==================
	-----------------------------------------------------------
	 SCS Same-Spin Scale       =       0.3333333333333333 [-]
	 SCS Opposite-Spin Scale   =       1.2000000000000000 [-]
	 SCS Same-Spin Energy      =      -0.2229069660750043 [Eh]
	 SCS Opposite-Spin Energy  =      -2.4146031084732513 [Eh]
	 SCS Correlation Energy    =      -2.6375100745482558 [Eh]
	 SCS Total Energy          =    -653.2055043039071052 [Eh]
	-----------------------------------------------------------

  -Total Gradient:
     Atom            X                  Y                   Z
    ------   -----------------  -----------------  -----------------
       1        0.000010700949    -0.000008660014     0.000002572822
       2        0.001924004193     0.002554159756     0.000725478506
       3       -0.000010877359    -0.000011898215     0.000014320239
       4       -0.000019538859     0.000012750866     0.000015778467
       5       -0.000001909540    -0.000012025528     0.000007424748
       6        0.000004665156    -0.000007284394    -0.000001710210
       7        0.000008024699    -0.000003447178    -0.000005815306
       8       -0.000021859658     0.000027397185     0.000000403932
       9        0.000025525510     0.000004449144    -0.000020692929
      10       -0.002362685094    -0.002740290776    -0.001353530577
      11        0.000000137137    -0.000012947838    -0.000010977375
      12       -0.000012672762     0.000009362110     0.000006787041
      13       -0.001303942224    -0.003843284578     0.001725184689
      14        0.000004713442     0.000001345421    -0.000002256277
      15       -0.000004013490     0.000005003459    -0.000003014851
      16       -0.000001284896     0.000003348130     0.000001775444
      17       -0.000001234177     0.000004214018    -0.000003211345
      18        0.000004768254    -0.000013266729    -0.000003752938
      19       -0.000002475049     0.000000707223     0.000000340308
      20       -0.000001448643     0.000001898378    -0.000000793894
      21        0.000000607976    -0.000000675851     0.000002044145
      22        0.000002761958    -0.000001643706     0.000001837898
      23        0.001758032487     0.004030789115    -0.001098192532

  **** Optimization is complete! (in 16 steps) ****
    Final optimized geometry and variables:
    Molecular point group: c1

    Geometry (in Angstrom), charge = 1, multiplicity = 1:

    C           -1.135722569176     1.067223368534    -0.703777619475
    C           -2.178594174590     1.682143471117    -0.050100005367
    C            1.434541367096     0.199912433441    -1.840775484439
    C            1.325054053364    -1.699913228619    -0.395510476241
    C           -1.519759628613     0.604080187989     2.000867686194
    C            2.455897754800    -0.401687207283    -2.531413939166
    C            2.347187585124    -2.274591139088    -1.109238979654
    C           -0.256740398756     0.200206111210    -0.039725931079
    C            0.833057526538    -0.434925142702    -0.745921446613
    C           -2.380073500601     1.447705957454     1.308563954473
    C           -0.489945792930    -0.000211517712     1.320053224731
    N            2.882907968393    -1.616118748733    -2.149352744948
    O           -3.425021068374     2.063121567691     1.894089309987
    F            0.345273148813    -0.786960937312     2.020304678609
    H           -1.016490694155     1.233549455910    -1.763496441324
    H           -2.856351440152     2.337587927779    -0.572431790578
    H            1.126461524020     1.187393945493    -2.142117898622
    H            0.899011937262    -2.252523960830     0.423012376084
    H           -1.641325452423     0.408209234953     3.054688976055
    H            2.956295927962     0.051077044682    -3.370972516455
    H            2.751907637723    -3.247807075657    -0.887112525617
    H            3.638973508266    -2.050290534772    -2.663078384938
    H           -3.244060133064     2.236416984144     2.824327840094

*** Psi4 exiting successfully. Buy a developer a beer!
