                               Psi4 1.1 release

  ==> Input File <==

--------------------------------------------------------------------------

memory 5000 mb

molecule butane {
  symmetry C1
  0 1
  H      1.637   0.633   -8.377
  H      1.702   2.347   -8.715
  H      2.053   1.192   -9.978
  C      2.142   1.395   -8.932
  H      4.169   2.051   -9.210
  H      3.731   1.788   -7.539
  C      3.631   1.416   -8.537
  H      3.665   -0.647   -7.940
  H      4.104   -0.384   -9.610
  C      4.203   -0.012   -8.612
  H      6.088   -0.983   -8.270
  H      5.791   0.381   -7.220
  H      6.230   0.644   -8.890
  C      5.691   0.009   -8.218
  units Angstrom
}

dih_string = "10 7 4 3 290"
set optking fixed_dihedral = $dih_string

optimize('MP2/aug-cc-pvtz')
--------------------------------------------------------------------------

    Molecular point group: c1
  Charge       = 0
  Multiplicity = 1
  Basis Set: AUG-CC-PVTZ
    Blend: AUG-CC-PVTZ
  Basis Set: (AUG-CC-PVTZ AUX)
    Blend: AUG-CC-PVTZ-JKFIT
  @DF-RHF Final Energy:  -157.35244236556844
    Total Energy =                       -157.3524423655684359
  Basis Set: (AUG-CC-PVTZ AUX)
    Blend: AUG-CC-PVTZ-RI
    Molecular point group: c1
  Basis Set: AUG-CC-PVTZ
    Blend: AUG-CC-PVTZ
  Basis Set: (AUG-CC-PVTZ AUX)
    Blend: AUG-CC-PVTZ-JKFIT
  Basis Set: (AUG-CC-PVTZ AUX)
    Blend: AUG-CC-PVTZ-JKFIT
	 Reference Energy          =    -157.3524423655684359 [Eh]
	 Singles Energy            =      -0.0000000000000001 [Eh]
	 Same-Spin Energy          =      -0.1653746797676788 [Eh]
	 Opposite-Spin Energy      =      -0.6387051298555124 [Eh]
	 Correlation Energy        =      -0.8040798096231913 [Eh]
	 Total Energy              =    -158.1565221751916397 [Eh]
	 SCS Total Energy          =    -158.1740134146509433 [Eh]
  @DF-RHF Final Energy:  -157.35508455464176
    Total Energy =                       -157.3550845546417634
  @DF-RHF Final Energy:  -157.35587368495061
    Total Energy =                       -157.3558736849506090
  @DF-RHF Final Energy:  -157.35610160193704
    Total Energy =                       -157.3561016019370413
  Charge       = 0
  Multiplicity = 1
  Basis Set: AUG-CC-PVTZ
    Blend: AUG-CC-PVTZ
  Basis Set: (AUG-CC-PVTZ AUX)
    Blend: AUG-CC-PVTZ-JKFIT

    Orbital Energies (a.u.)
    -----------------------

    Doubly Occupied:

       1A    -11.211373     2A    -11.210733     3A    -11.206027
       4A    -11.206020     5A     -1.074357     6A     -0.982200
       7A     -0.861002     8A     -0.787826     9A     -0.641170
      10A     -0.585457    11A     -0.577169    12A     -0.568425
      13A     -0.514232    14A     -0.494766    15A     -0.469930
      16A     -0.461238    17A     -0.456254

  @DF-RHF Final Energy:  -157.35609647837475

   => Energetics <=

    Nuclear Repulsion Energy =            131.5377253380590616
    One-Electron Energy =                -471.1712878788057424
    Two-Electron Energy =                 182.2774660623719001
    DFT Exchange-Correlation Energy =       0.0000000000000000
    Empirical Dispersion Energy =           0.0000000000000000
    PCM Polarization Energy =               0.0000000000000000
    EFP Energy =                            0.0000000000000000
    Total Energy =                       -157.3560964783747522
  Basis Set: (AUG-CC-PVTZ AUX)
    Blend: AUG-CC-PVTZ-RI
    Molecular point group: c1
  Basis Set: AUG-CC-PVTZ
    Blend: AUG-CC-PVTZ
  Basis Set: (AUG-CC-PVTZ AUX)
    Blend: AUG-CC-PVTZ-JKFIT
  Basis Set: (AUG-CC-PVTZ AUX)
    Blend: AUG-CC-PVTZ-JKFIT
	 Reference Energy          =    -157.3560964783747522 [Eh]
	 Singles Energy            =      -0.0000000000000000 [Eh]
	 Same-Spin Energy          =      -0.1654512521443895 [Eh]
	 Opposite-Spin Energy      =      -0.6391913977783871 [Eh]
	 Correlation Energy        =      -0.8046426499227766 [Eh]
	 Total Energy              =    -158.1607391282975357 [Eh]

	 ================> DF-SCS-MP2 Energies <==================
	-----------------------------------------------------------
	 SCS Same-Spin Scale       =       0.3333333333333333 [-]
	 SCS Opposite-Spin Scale   =       1.2000000000000000 [-]
	 SCS Same-Spin Energy      =      -0.0551504173814632 [Eh]
	 SCS Opposite-Spin Energy  =      -0.7670296773340645 [Eh]
	 SCS Correlation Energy    =      -0.8221800947155277 [Eh]
	 SCS Total Energy          =    -158.1782765730902724 [Eh]
	-----------------------------------------------------------

  -Total Gradient:
     Atom            X                  Y                   Z
    ------   -----------------  -----------------  -----------------
       1       -0.000044076991    -0.000048253869     0.000030076116
       2       -0.000009624481     0.000026835580     0.000008248794
       3        0.000078090201     0.001543262286    -0.000348822262
       4       -0.000091044923    -0.002015046419     0.000818977431
       5        0.000015477441    -0.000003724705    -0.000047860985
       6       -0.000009833591    -0.000001463625     0.000004279608
       7        0.000410783655     0.000650996262    -0.001535667945
       8        0.000007230393     0.000013463553     0.000014494399
       9        0.000003256425     0.000005970055    -0.000045294399
      10       -0.000309324067    -0.000203986883     0.001098082718
      11        0.000015683293    -0.000048039473    -0.000003936009
      12        0.000018346758     0.000015427225     0.000049373020
      13        0.000027682198     0.000026982607    -0.000030183361
      14       -0.000112646309     0.000037577406    -0.000011767127

  **** Optimization is complete! (in 5 steps) ****
    Final optimized geometry and variables:
    Molecular point group: c1

    Geometry (in Angstrom), charge = 0, multiplicity = 1:

    H           -2.327314651775    -0.066021746357     0.185789001963
    H           -2.239131077922     1.657341549390    -0.159635811487
    H           -1.887350177495     0.496544503784    -1.426337123892
    C           -1.774555591056     0.694781408733    -0.362195198065
    H            0.252344953498     1.363768940891    -0.613574921447
    H           -0.203248659547     1.078303469403     1.049676697307
    C           -0.309808434644     0.690559605754     0.035219600358
    H           -0.243243004465    -1.352847623327     0.651329672095
    H            0.179885561971    -1.101373169600    -1.026408252451
    C            0.306830015774    -0.693797146512    -0.021949208186
    H            2.202409909691    -1.693279318848     0.311159035424
    H            1.919551066458    -0.306007811560     1.356782902176
    H            2.345831262557    -0.060868048972    -0.331059070901
    C            1.777556250695    -0.692850743652     0.349116113862

*** Psi4 exiting successfully. Buy a developer a beer!
