                              Psi4 1.0.0 Driver

  ==> Input File <==

--------------------------------------------------------------------------

memory 1000 mb

molecule butane {
  symmetry C1
  0 1
  H      1.604   0.760   -8.260
  H      1.745   2.388   -8.880
  H      2.043   1.024   -9.930
  C      2.142   1.395   -8.932
  H      4.169   2.051   -9.210
  H      3.731   1.788   -7.539
  C      3.631   1.416   -8.537
  H      3.950   -0.448   -9.556
  H      5.267   0.024   -8.510
  C      4.203   -0.012   -8.612
  H      4.005   -1.856   -7.529
  H      2.543   -0.901   -7.579
  H      3.860   -0.429   -6.532
  C      3.607   -0.865   -7.477
  units Angstrom
}

dih_string = "4 7 10 14 290"
set optking fixed_dihedral = $dih_string

optimize('MP2/6-31G(d)')
--------------------------------------------------------------------------

    Molecular point group: c1
  Charge       = 0
  Multiplicity = 1
  Basis Set: 6-31G(D)
  Basis Set:
  @DF-RHF Final Energy:  -157.29108664138658
    Total Energy =                       -157.2910866413866415
  Basis Set:
    Molecular point group: c1
  Basis Set: 6-31G(D)
  Basis Set:
  Basis Set:
	 Reference Energy          =    -157.2910866413865847 [Eh]
	 Singles Energy            =      -0.0000000000000000 [Eh]
	 Same-Spin Energy          =      -0.1248572685170044 [Eh]
	 Opposite-Spin Energy      =      -0.4206566195095944 [Eh]
	 Correlation Energy        =      -0.5455138880265988 [Eh]
	 Total Energy              =    -157.8366005294131753 [Eh]
	 SCS Total Energy          =    -157.8374936743037722 [Eh]
  Basis Set: 6-31G(D)
  Basis Set:
  @DF-RHF Final Energy:  -157.29472598640822
    Total Energy =                       -157.2947259864085936
  Basis Set:
  Basis Set: 6-31G(D)
  Basis Set:
  @DF-RHF Final Energy:  -157.29578139536417
    Total Energy =                       -157.2957813953642017
  @DF-RHF Final Energy:  -157.29623745775004
    Total Energy =                       -157.2962374577500100
  @DF-RHF Final Energy:  -157.29626319925720
    Total Energy =                       -157.2962631992571687
	 Singles Energy            =      -0.0000000000000000 [Eh]
	 Same-Spin Energy          =      -0.1246200312078471 [Eh]
	 Opposite-Spin Energy      =      -0.4224406847314997 [Eh]
	 Correlation Energy        =      -0.5470607159393468 [Eh]
	 Total Energy              =    -157.8433239151965495 [Eh]
	 SCS Total Energy          =    -157.8447320313375997 [Eh]
  Charge       = 0
  Multiplicity = 1
  Basis Set: 6-31G(D)
  Basis Set:

    Orbital Energies (a.u.)
    -----------------------

    Doubly Occupied:

       1A    -11.215963     2A    -11.215368     3A    -11.209848
       4A    -11.209846     5A     -1.070325     6A     -0.975452
       7A     -0.870816     8A     -0.775759     9A     -0.621622
      10A     -0.620066    11A     -0.573655    12A     -0.533045
      13A     -0.529704    14A     -0.503011    15A     -0.462818
      16A     -0.456313    17A     -0.456199

  @DF-RHF Final Energy:  -157.29625782807045

   => Energetics <=

    Nuclear Repulsion Energy =            132.5239847733039369
    One-Electron Energy =                -473.0408677732058322
    Two-Electron Energy =                 183.2206251718315002
    DFT Exchange-Correlation Energy =       0.0000000000000000
    Empirical Dispersion Energy =           0.0000000000000000
    PCM Polarization Energy =               0.0000000000000000
    EFP Energy =                            0.0000000000000000
    Total Energy =                       -157.2962578280703951
  Basis Set:
    Molecular point group: c1
  Basis Set: 6-31G(D)
  Basis Set:
  Basis Set:
	 Reference Energy          =    -157.2962578280704520 [Eh]
	 Singles Energy            =      -0.0000000000000000 [Eh]
	 Same-Spin Energy          =      -0.1246219076294334 [Eh]
	 Opposite-Spin Energy      =      -0.4224465541918681 [Eh]
	 Correlation Energy        =      -0.5470684618213015 [Eh]
	 Total Energy              =    -157.8433262898917633 [Eh]

	 ================> DF-SCS-MP2 Energies <==================
	-----------------------------------------------------------
	 SCS Same-Spin Scale       =       0.3333333333333333 [-]
	 SCS Opposite-Spin Scale   =       1.2000000000000000 [-]
	 SCS Same-Spin Energy      =      -0.0415406358764778 [Eh]
	 SCS Opposite-Spin Energy  =      -0.5069358650302417 [Eh]
	 SCS Correlation Energy    =      -0.5484765009067195 [Eh]
	 SCS Total Energy          =    -157.8447343289771823 [Eh]
	-----------------------------------------------------------

  -Total Gradient:
     Atom            X                  Y                   Z
    ------   -----------------  -----------------  -----------------
       1       -0.000002685930    -0.000004922968     0.000002582197
       2       -0.000001479313     0.000007940296     0.000000965139
       3       -0.000006337284     0.000003031389     0.000005525951
       4        0.000228929382     0.000095392825    -0.000801142073
       5        0.000018410434    -0.000006848827     0.000016928473
       6       -0.000013281382    -0.000001541975    -0.000001123244
       7       -0.000058978012    -0.000045846456     0.001291222583
       8       -0.000008178677    -0.000008103725     0.000010288946
       9       -0.000003308338     0.000013870288    -0.000024177590
      10       -0.000775789181    -0.000305118420    -0.000979202423
      11        0.000003380915    -0.000008810147     0.000000306516
      12       -0.000008685414     0.000000093886     0.000001032039
      13       -0.000003587690    -0.000008090591    -0.000000763301
      14        0.000631590490     0.000268954423     0.000477556787

  **** Optimization is complete! (in 6 steps) ****
    Final optimized geometry and variables:
    Molecular point group: c1

    Geometry (in Angstrom), charge = 0, multiplicity = 1:

    H           -1.870310283694     0.429446934038     0.142210389285
    H           -1.601680783131     2.026772834761    -0.555787802145
    H           -1.403851921561     0.582157054900    -1.555818287552
    C           -1.244451429353     0.993162436065    -0.554218080417
    H            0.804462672641     1.553294819233    -0.862665939190
    H            0.377786003590     1.348084431563     0.827080674613
    C            0.231261775349     0.922323626887    -0.173281765408
    H            0.594529378239    -0.946496535436    -1.181028978455
    H            1.896884874541    -0.437504660784    -0.120742264749
    C            0.805198006105    -0.494233969512    -0.204022278030
    H            0.738803594215    -2.383174658905     0.869913260204
    H           -0.807389242898    -1.535414614052     0.832572856160
    H            0.487599442035    -0.960613997026     1.889370444864
    C            0.273766195164    -1.394087144628     0.907577515211

*** Psi4 exiting successfully. Buy a developer a beer!
