                               Psi4 1.1 release

  ==> Input File <==

--------------------------------------------------------------------------

memory 5 Gb

molecule phepyrOH_anion {
  symmetry C1
  -1 1
  C      1.885   -1.036   -0.112
  C      2.878   -1.652   2.002
  C      0.807   -0.463   0.561
  C      1.800   -1.079   2.676
  C      3.891   -3.450   -0.732
  C      5.268   -1.574   -0.123
  C      4.992   -3.977   -1.388
  C      6.307   -2.185   -0.806
  C      2.921   -1.631   0.608
  C      4.040   -2.226   -0.090
  C      0.764   -0.484   1.955
  N      6.201   -3.373   -1.442
  O      -0.227   0.042   2.574
  H      1.904   -1.011   -1.199
  H      3.678   -2.112   2.577
  H      0.011   -0.006   -0.025
  H      1.791   -1.108   3.764
  H      2.948   -3.988   -0.729
  H      5.421   -0.618   0.367
  H      4.928   -4.928   -1.905
  H      7.285   -1.719   -0.860
  units Angstrom
}

dih_string = "1 9 10 5 285"
set optking fixed_dihedral = $dih_string

optimize('MP2/aug-cc-PVTZ')
--------------------------------------------------------------------------

    Molecular point group: c1
  Charge       = -1
  Multiplicity = 1
  Basis Set: AUG-CC-PVTZ
    Blend: AUG-CC-PVTZ
  Basis Set: (AUG-CC-PVTZ AUX)
    Blend: AUG-CC-PVTZ-JKFIT

    Orbital Energies (a.u.)
    -----------------------

    Doubly Occupied:

       1A    -20.284266     2A    -15.463092     3A    -11.173488
       4A    -11.173339     5A    -11.145778     6A    -11.127629
       7A    -11.127557     8A    -11.104506     9A    -11.093356
      10A    -11.093327    11A    -11.070383    12A    -11.053478
      13A    -11.053438    14A     -1.147504    15A     -1.117801
      16A     -1.018050    17A     -0.956847    18A     -0.930168
      19A     -0.860426    20A     -0.835104    21A     -0.750014
      22A     -0.734456    23A     -0.676526    24A     -0.646093
      25A     -0.594215    26A     -0.558000    27A     -0.547207
      28A     -0.502562    29A     -0.495347    30A     -0.488055
      31A     -0.476774    32A     -0.435482    33A     -0.430345
      34A     -0.417633    35A     -0.402725    36A     -0.367808
      37A     -0.355651    38A     -0.343955    39A     -0.315058
      40A     -0.281818    41A     -0.258801    42A     -0.247847
      43A     -0.203313    44A     -0.191565    45A     -0.103031

  @DF-RHF Final Energy:  -550.70845423394098

   => Energetics <=

    Nuclear Repulsion Energy =            685.6192844597695739
    One-Electron Energy =               -2121.3478391391327023
    Two-Electron Energy =                 885.0201004454222584
    DFT Exchange-Correlation Energy =       0.0000000000000000
    Empirical Dispersion Energy =           0.0000000000000000
    PCM Polarization Energy =               0.0000000000000000
    EFP Energy =                            0.0000000000000000
    Total Energy =                       -550.7084542339409836
  Basis Set: (AUG-CC-PVTZ AUX)
    Blend: AUG-CC-PVTZ-RI
    Molecular point group: c1

    Geometry (in Angstrom), charge = -1, multiplicity = 1:

       Center              X                  Y                   Z               Mass
    ------------   -----------------  -----------------  -----------------  -----------------
           C         -1.278713913214     0.723701021384    -0.568284726757    12.000000000000
           C         -0.285713913214     0.107701021384     1.545715273243    12.000000000000
           C         -2.356713913214     1.296701021384     0.104715273243    12.000000000000
           C         -1.363713913214     0.680701021384     2.219715273243    12.000000000000
           C          0.727286086786    -1.690298978616    -1.188284726757    12.000000000000
           C          2.104286086786     0.185701021384    -0.579284726757    12.000000000000
           C          1.828286086786    -2.217298978616    -1.844284726757    12.000000000000
           C          3.143286086786    -0.425298978616    -1.262284726757    12.000000000000
           C         -0.242713913214     0.128701021384     0.151715273243    12.000000000000
           C          0.876286086786    -0.466298978616    -0.546284726757    12.000000000000
           C         -2.399713913214     1.275701021384     1.498715273243    12.000000000000
           N          3.037286086786    -1.613298978616    -1.898284726757    14.003074004780
           O         -3.390713913214     1.801701021384     2.117715273243    15.994914619560
           H         -1.259713913214     0.748701021384    -1.655284726757     1.007825032070
           H          0.514286086786    -0.352298978616     2.120715273243     1.007825032070
           H         -3.152713913214     1.753701021384    -0.481284726757     1.007825032070
           H         -1.372713913214     0.651701021384     3.307715273243     1.007825032070
           H         -0.215713913214    -2.228298978616    -1.185284726757     1.007825032070
           H          2.257286086786     1.141701021384    -0.089284726757     1.007825032070
           H          1.764286086786    -3.168298978616    -2.361284726757     1.007825032070
           H          4.121286086786     0.040701021384    -1.316284726757     1.007825032070

  Basis Set: AUG-CC-PVTZ
    Blend: AUG-CC-PVTZ
  Basis Set: (AUG-CC-PVTZ AUX)
    Blend: AUG-CC-PVTZ-JKFIT
  Basis Set: (AUG-CC-PVTZ AUX)
    Blend: AUG-CC-PVTZ-JKFIT
	 Reference Energy          =    -550.7084542339409836 [Eh]
	 Singles Energy            =      -0.0000000000000002 [Eh]
	 Same-Spin Energy          =      -0.6132097163386873 [Eh]
	 Opposite-Spin Energy      =      -1.8374510203375418 [Eh]
	 Correlation Energy        =      -2.4506607366762294 [Eh]
	 Total Energy              =    -553.1591149706172246 [Eh]

	 ================> DF-SCS-MP2 Energies <==================
	-----------------------------------------------------------
	 SCS Same-Spin Scale       =       0.3333333333333333 [-]
	 SCS Opposite-Spin Scale   =       1.2000000000000000 [-]
	 SCS Same-Spin Energy      =      -0.2044032387795624 [Eh]
	 SCS Opposite-Spin Energy  =      -2.2049412244050499 [Eh]
	 SCS Correlation Energy    =      -2.4093444631846128 [Eh]
	 SCS Total Energy          =    -553.1177986971256360 [Eh]
	-----------------------------------------------------------

  -Total Gradient:
     Atom            X                  Y                   Z
    ------   -----------------  -----------------  -----------------
       1        0.012368021960    -0.002899747924    -0.005118104624
       2        0.008472789812    -0.008148699064    -0.007902368539
       3       -0.021311413522     0.010564784585     0.034244608787
       4       -0.036523228716     0.020020539575     0.002734257001
       5       -0.011310495360     0.001094517756     0.007179211949
       6       -0.007279475943     0.010094541874     0.004981713167
       7       -0.012107031178    -0.003343667098     0.003381348010
       8       -0.003622361691     0.010381906044     0.005832931517
       9       -0.000817017716     0.000452883732     0.000428683214
      10        0.007997068071    -0.004705224063    -0.004927379318
      11        0.046837895942    -0.024714211132    -0.029770376565
      12        0.010233323234    -0.004728952346    -0.006131351537
      13        0.003429997306    -0.001887253503    -0.002064716569
      14       -0.002910831934     0.001578211459    -0.002761710364
      15        0.000457122811    -0.000238494811     0.004163237750
      16       -0.002060996008     0.000896885275    -0.008791566410
      17        0.005570159244    -0.002749020458     0.006258273164
      18       -0.002930602444    -0.004935718085    -0.002297208630
      19        0.004006483929     0.003919893288     0.001370523435
      20        0.000057567984    -0.000934879367    -0.000917063525
      21        0.001443024221     0.000281704259     0.000107058091

*** Psi4 exiting successfully. Buy a developer a beer!
