                               Psi4 1.1 release

  ==> Input File <==

--------------------------------------------------------------------------

memory 1000 mb

molecule butane {
  symmetry C1
  0 1
  H      3.516   1.428   -6.392
  H      2.458   2.584   -7.166
  H      2.054   0.884   -7.178
  C      2.856   1.591   -7.217
  H      2.970   1.579   -9.363
  H      4.432   2.123   -8.577
  C      3.631   1.416   -8.537
  H      3.665   -0.647   -7.940
  H      4.104   -0.384   -9.610
  C      4.203   -0.012   -8.612
  H      6.088   -0.983   -8.270
  H      5.791   0.381   -7.220
  H      6.230   0.644   -8.890
  C      5.691   0.009   -8.218
  units Angstrom
}

dih_string = "14 10 7 4 260"
set optking fixed_dihedral = $dih_string

optimize('MP2/aug-cc-pvtz')
--------------------------------------------------------------------------

    Molecular point group: c1
  Charge       = 0
  Multiplicity = 1
  Basis Set: AUG-CC-PVTZ
    Blend: AUG-CC-PVTZ
  Basis Set: (AUG-CC-PVTZ AUX)
    Blend: AUG-CC-PVTZ-JKFIT
  @DF-RHF Final Energy:  -157.34802339164895
    Total Energy =                       -157.3480233916489510
  Basis Set: (AUG-CC-PVTZ AUX)
    Blend: AUG-CC-PVTZ-RI
    Molecular point group: c1
  Basis Set: AUG-CC-PVTZ
    Blend: AUG-CC-PVTZ
  Basis Set: (AUG-CC-PVTZ AUX)
    Blend: AUG-CC-PVTZ-JKFIT
  Basis Set: (AUG-CC-PVTZ AUX)
    Blend: AUG-CC-PVTZ-JKFIT
	 Reference Energy          =    -157.3480233916489510 [Eh]
	 Singles Energy            =      -0.0000000000000000 [Eh]
	 Same-Spin Energy          =      -0.1656792509822253 [Eh]
	 Opposite-Spin Energy      =      -0.6396310888084812 [Eh]
	 Correlation Energy        =      -0.8053103397907064 [Eh]
	 Total Energy              =    -158.1533337314396590 [Eh]
	 SCS Total Energy          =    -158.1708071152131936 [Eh]
  @DF-RHF Final Energy:  -157.35065140188877
    Total Energy =                       -157.3506514018887685
  @DF-RHF Final Energy:  -157.35151036899077
    Total Energy =                       -157.3515103689907733
  @DF-RHF Final Energy:  -157.35179339652865
    Total Energy =                       -157.3517933965286488
  @DF-RHF Final Energy:  -157.35182879884752
    Total Energy =                       -157.3518287988475208
  @DF-RHF Final Energy:  -157.35182757403925
    Total Energy =                       -157.3518275740392482
  @DF-RHF Final Energy:  -157.35182080186675
    Total Energy =                       -157.3518208018667508
  Charge       = 0
  Multiplicity = 1
  Basis Set: AUG-CC-PVTZ
    Blend: AUG-CC-PVTZ
  Basis Set: (AUG-CC-PVTZ AUX)
    Blend: AUG-CC-PVTZ-JKFIT

    Orbital Energies (a.u.)
    -----------------------

    Doubly Occupied:

       1A    -11.211196     2A    -11.210596     3A    -11.206513
       4A    -11.206509     5A     -1.072774     6A     -0.979979
       7A     -0.865045     8A     -0.784566     9A     -0.628227
      10A     -0.612326    11A     -0.579114    12A     -0.543633
      13A     -0.517477    14A     -0.507203    15A     -0.467737
      16A     -0.455337    17A     -0.453692

  @DF-RHF Final Energy:  -157.35181924624422

   => Energetics <=

    Nuclear Repulsion Energy =            132.4509725414859247
    One-Electron Energy =                -473.0017372806103140
    Two-Electron Energy =                 183.1989454928801422
    DFT Exchange-Correlation Energy =       0.0000000000000000
    Empirical Dispersion Energy =           0.0000000000000000
    PCM Polarization Energy =               0.0000000000000000
    EFP Energy =                            0.0000000000000000
    Total Energy =                       -157.3518192462442187
  Basis Set: (AUG-CC-PVTZ AUX)
    Blend: AUG-CC-PVTZ-RI
    Molecular point group: c1
  Basis Set: AUG-CC-PVTZ
    Blend: AUG-CC-PVTZ
  Basis Set: (AUG-CC-PVTZ AUX)
    Blend: AUG-CC-PVTZ-JKFIT
  Basis Set: (AUG-CC-PVTZ AUX)
    Blend: AUG-CC-PVTZ-JKFIT
	 Reference Energy          =    -157.3518192462442187 [Eh]
	 Singles Energy            =      -0.0000000000000002 [Eh]
	 Same-Spin Energy          =      -0.1655537926795810 [Eh]
	 Opposite-Spin Energy      =      -0.6399888238020520 [Eh]
	 Correlation Energy        =      -0.8055426164816333 [Eh]
	 Total Energy              =    -158.1573618627258497 [Eh]

	 ================> DF-SCS-MP2 Energies <==================
	-----------------------------------------------------------
	 SCS Same-Spin Scale       =       0.3333333333333333 [-]
	 SCS Opposite-Spin Scale   =       1.2000000000000000 [-]
	 SCS Same-Spin Energy      =      -0.0551845975598603 [Eh]
	 SCS Opposite-Spin Energy  =      -0.7679865885624624 [Eh]
	 SCS Correlation Energy    =      -0.8231711861223230 [Eh]
	 SCS Total Energy          =    -158.1749904323665419 [Eh]
	-----------------------------------------------------------

  -Total Gradient:
     Atom            X                  Y                   Z
    ------   -----------------  -----------------  -----------------
       1       -0.000009271533     0.000005156663    -0.000004911213
       2        0.000001748472    -0.000004933619    -0.000002483663
       3        0.000006564838     0.000005956986    -0.000003493797
       4       -0.002058423721    -0.000869876107    -0.001120172705
       5       -0.000000255315     0.000004613440     0.000007669670
       6       -0.000008893058    -0.000002719321    -0.000002504241
       7        0.003054454640     0.001379402488     0.000655913669
       8        0.000004252086     0.000001354006    -0.000008377215
       9        0.000006078448    -0.000002970557     0.000006254846
      10       -0.001589332699    -0.000976367095     0.002860210994
      11       -0.000003611025     0.000004862380    -0.000001473247
      12        0.000003458972    -0.000006692055    -0.000008708693
      13       -0.000006598970    -0.000005971277     0.000003278071
      14        0.000599828871     0.000468184067    -0.002381202475

  **** Optimization is complete! (in 8 steps) ****
    Final optimized geometry and variables:
    Molecular point group: c1

    Geometry (in Angstrom), charge = 0, multiplicity = 1:

    H           -0.643519922398     0.627705854711     1.780924240326
    H           -1.687529870197     1.817830312822     1.012961227696
    H           -2.107211137907     0.108148937093     0.956504081022
    C           -1.280193766204     0.813879568857     0.916940627067
    H           -1.177178650005     0.805512769542    -1.214772794320
    H            0.271050784650     1.407577581464    -0.448714650081
    C           -0.501928722821     0.642088793206    -0.375623832683
    H           -0.393533313919    -1.441281305037     0.154691629096
    H            0.044834187200    -1.117095209604    -1.503449782399
    C            0.143081166217    -0.740831611553    -0.485799077471
    H            2.051457348504    -1.717688976816    -0.139345137871
    H            1.756190869410    -0.321537969008     0.890072176898
    H            2.171162227642    -0.090550414679    -0.802985972471
    C            1.615044796901    -0.721739816916    -0.113122057760

*** Psi4 exiting successfully. Buy a developer a beer!
