                               Psi4 1.1 release

  ==> Input File <==

--------------------------------------------------------------------------

memory 5 Gb

molecule phepyrOH_neutral {
  symmetry C1
  0 1
  C      1.885   -1.036   -0.112
  C      2.878   -1.652   2.002
  C      0.807   -0.463   0.561
  C      1.800   -1.079   2.676
  C      3.862   -2.773   -1.356
  C      5.298   -2.250   0.501
  C      4.965   -3.329   -1.983
  C      6.337   -2.829   -0.209
  C      2.921   -1.631   0.608
  C      4.040   -2.225   -0.090
  C      0.764   -0.484   1.955
  N      6.202   -3.372   -1.440
  O      -0.288   0.076   2.612
  H      1.904   -1.012   -1.199
  H      3.678   -2.112   2.578
  H      0.003   -0.001   -0.006
  H      1.772   -1.098   3.762
  H      2.895   -2.772   -1.850
  H      5.475   -1.833   1.487
  H      4.879   -3.768   -2.972
  H      7.337   -2.875   0.208
  H      -0.220   1.044   2.593
  units Angstrom
}

dih_string = "3 11 13 22 285"
set optking fixed_dihedral = $dih_string

optimize('MP2/aug-cc-PVTZ')
--------------------------------------------------------------------------

    Molecular point group: c1
  Charge       = 0
  Multiplicity = 1
  Basis Set: AUG-CC-PVTZ
    Blend: AUG-CC-PVTZ
  Basis Set: (AUG-CC-PVTZ AUX)
    Blend: AUG-CC-PVTZ-JKFIT
  @DF-RHF Final Energy:  -551.28182479812847
    Total Energy =                       -551.2818247981284685
  Basis Set: (AUG-CC-PVTZ AUX)
    Blend: AUG-CC-PVTZ-RI
    Molecular point group: c1
  Basis Set: AUG-CC-PVTZ
    Blend: AUG-CC-PVTZ
  Basis Set: (AUG-CC-PVTZ AUX)
    Blend: AUG-CC-PVTZ-JKFIT
  Basis Set: (AUG-CC-PVTZ AUX)
    Blend: AUG-CC-PVTZ-JKFIT
	 Reference Energy          =    -551.2818247981284685 [Eh]
	 Singles Energy            =      -0.0000000000000002 [Eh]
	 Same-Spin Energy          =      -0.6046925691733488 [Eh]
	 Opposite-Spin Energy      =      -1.8303430672998511 [Eh]
	 Correlation Energy        =      -2.4350356364732004 [Eh]
	 Total Energy              =    -553.7168604346016991 [Eh]
	 SCS Total Energy          =    -553.6798006686127565 [Eh]
  @DF-RHF Final Energy:  -551.28762565434079
    Total Energy =                       -551.2876256543407862
  @DF-RHF Final Energy:  -551.28885665064456
    Total Energy =                       -551.2888566506445613
  @DF-RHF Final Energy:  -551.28887098754274
    Total Energy =                       -551.2888709875427367
  @DF-RHF Final Energy:  -551.28895988863439
    Total Energy =                       -551.2889598886343947
  @DF-RHF Final Energy:  -551.28905277596800
    Total Energy =                       -551.2890527759680026
  Charge       = 0
  Multiplicity = 1
  Basis Set: AUG-CC-PVTZ
    Blend: AUG-CC-PVTZ
  Basis Set: (AUG-CC-PVTZ AUX)
    Blend: AUG-CC-PVTZ-JKFIT

    Orbital Energies (a.u.)
    -----------------------

    Doubly Occupied:

       1A    -20.588717     2A    -15.561748     3A    -11.305092
       4A    -11.272637     5A    -11.272594     6A    -11.266239
       7A    -11.251959     8A    -11.250423     9A    -11.249653
      10A    -11.242945    11A    -11.241107    12A    -11.237093
      13A    -11.237041    14A     -1.402600    15A     -1.259103
      16A     -1.175992    17A     -1.106339    18A     -1.039369
      19A     -1.030618    20A     -1.012908    21A     -0.879765
      22A     -0.872148    23A     -0.840823    24A     -0.812381
      25A     -0.745300    26A     -0.724173    27A     -0.683434
      28A     -0.662787    29A     -0.652250    30A     -0.643124
      31A     -0.634955    32A     -0.606429    33A     -0.597239
      34A     -0.594044    35A     -0.552186    36A     -0.540295
      37A     -0.533505    38A     -0.520248    39A     -0.504348
      40A     -0.484207    41A     -0.418366    42A     -0.401632
      43A     -0.354736    44A     -0.349117    45A     -0.319822

  @DF-RHF Final Energy:  -551.28908081479176

   => Energetics <=

    Nuclear Repulsion Energy =            697.3424298451100185
    One-Electron Energy =               -2131.4000406539157666
    Two-Electron Energy =                 882.7685299940139885
    DFT Exchange-Correlation Energy =       0.0000000000000000
    Empirical Dispersion Energy =           0.0000000000000000
    PCM Polarization Energy =               0.0000000000000000
    EFP Energy =                            0.0000000000000000
    Total Energy =                       -551.2890808147917596
  Basis Set: (AUG-CC-PVTZ AUX)
    Blend: AUG-CC-PVTZ-RI
    Molecular point group: c1
  Basis Set: AUG-CC-PVTZ
    Blend: AUG-CC-PVTZ
  Basis Set: (AUG-CC-PVTZ AUX)
    Blend: AUG-CC-PVTZ-JKFIT
  Basis Set: (AUG-CC-PVTZ AUX)
    Blend: AUG-CC-PVTZ-JKFIT
	 Reference Energy          =    -551.2890808147917596 [Eh]
	 Singles Energy            =      -0.0000000000000000 [Eh]
	 Same-Spin Energy          =      -0.6035787703431126 [Eh]
	 Opposite-Spin Energy      =      -1.8280266879347729 [Eh]
	 Correlation Energy        =      -2.4316054582778852 [Eh]
	 Total Energy              =    -553.7206862730696457 [Eh]

	 ================> DF-SCS-MP2 Energies <==================
	-----------------------------------------------------------
	 SCS Same-Spin Scale       =       0.3333333333333333 [-]
	 SCS Opposite-Spin Scale   =       1.2000000000000000 [-]
	 SCS Same-Spin Energy      =      -0.2011929234477042 [Eh]
	 SCS Opposite-Spin Energy  =      -2.1936320255217274 [Eh]
	 SCS Correlation Energy    =      -2.3948249489694318 [Eh]
	 SCS Total Energy          =    -553.6839057637612314 [Eh]
	-----------------------------------------------------------

  -Total Gradient:
     Atom            X                  Y                   Z
    ------   -----------------  -----------------  -----------------
       1        0.000005291868     0.000023097922     0.000006452831
       2       -0.000000823416     0.000010748911     0.000014918975
       3       -0.000582686166    -0.001153344193    -0.000068245124
       4        0.000013954867     0.000007058010    -0.000014804093
       5        0.000014288737     0.000033186454    -0.000002505922
       6       -0.000020069969    -0.000033846398     0.000012640309
       7       -0.000035035764    -0.000069729009     0.000037283347
       8        0.000008771560     0.000093484431    -0.000029798096
       9        0.000017708212    -0.000029154867    -0.000022561625
      10       -0.000029517311     0.000016748890     0.000011552915
      11        0.001051316494     0.001715166034     0.000446067587
      12        0.000014291858    -0.000012429560    -0.000007732461
      13       -0.001339537104    -0.000521459430    -0.001806966447
      14       -0.000000754187     0.000000921782    -0.000002276328
      15        0.000003862151    -0.000002190889     0.000000616587
      16        0.000004391539    -0.000001999114    -0.000003849836
      17       -0.000005271054    -0.000006612693     0.000000694037
      18        0.000004613718    -0.000009302113    -0.000009959339
      19        0.000012061355    -0.000001063060     0.000001166042
      20        0.000002100003     0.000024199383    -0.000016678715
      21       -0.000003698504    -0.000027155576     0.000019363339
      22        0.000864741117    -0.000056324918     0.001434622015

  **** Optimization is complete! (in 7 steps) ****
    Final optimized geometry and variables:
    Molecular point group: c1

    Geometry (in Angstrom), charge = 0, multiplicity = 1:

    C           -1.235111086588     0.776788492997    -0.562238316985
    C           -0.317391047890     0.053728574978     1.528526856576
    C           -2.307598496010     1.348375148861     0.102943632816
    C           -1.383641807693     0.630206916662     2.199665385331
    C            0.747383314972    -1.099268148628    -1.804824997767
    C            2.188960209211    -0.476815645784    -0.030164769721
    C            1.846202348554    -1.660551372107    -2.435222906721
    C            3.228315699448    -1.063990444301    -0.733534300444
    C           -0.223869983786     0.121660346560     0.139180000672
    C            0.904253759037    -0.484916567362    -0.565742805294
    C           -2.374066246963     1.289291150858     1.487761153415
    N            3.078819579638    -1.652918305834    -1.922321137340
    O           -3.463543189839     1.796646176939     2.164740441049
    H           -1.173934108513     0.854999082812    -1.637565382750
    H            0.437533819524    -0.478669889411     2.087809048762
    H           -3.094966381658     1.846144425894    -0.442514007152
    H           -1.466159146571     0.567055787393     3.273572741229
    H           -0.226985677663    -1.164174252836    -2.265092318848
    H            2.384869791626     0.004805987227     0.915972415275
    H            1.730930932283    -2.144910484100    -3.394861640813
    H            4.229891290161    -1.056281763960    -0.326579080354
    H           -3.411660758276     2.756389366519     2.163707582900

*** Psi4 exiting successfully. Buy a developer a beer!
