                               Psi4 1.1 release

  ==> Input File <==

--------------------------------------------------------------------------

memory 5 Gb

molecule phepyrFOH_neutral {
  symmetry C1
  0 1
  C      1.885   -1.036   -0.112
  C      0.807   -0.463   0.561
  C      5.009   -1.415   -0.673
  C      4.145   -3.608   -0.193
  C      1.800   -1.079   2.676
  C      6.059   -2.032   -1.334
  C      5.233   -4.127   -0.875
  C      2.921   -1.631   0.608
  C      4.038   -2.225   -0.095
  C      0.764   -0.484   1.955
  C      2.878   -1.652   2.002
  N      6.196   -3.372   -1.450
  O      -0.289   0.076   2.612
  F      3.866   -2.220   2.709
  H      1.904   -1.012   -1.199
  H      0.002   -0.002   -0.006
  H      4.960   -0.332   -0.617
  H      3.406   -4.271   0.245
  H      1.772   -1.099   3.762
  H      6.843   -1.445   -1.801
  H      5.362   -5.199   -0.981
  H      -0.175   -0.018   3.571
  units Angstrom
}

dih_string = "1 8 9 3 75"
set optking fixed_dihedral = $dih_string

optimize('MP2/aug-cc-PVTZ')
--------------------------------------------------------------------------

    Molecular point group: c1
  Charge       = 0
  Multiplicity = 1
  Basis Set: AUG-CC-PVTZ
    Blend: AUG-CC-PVTZ
  Basis Set: (AUG-CC-PVTZ AUX)
    Blend: AUG-CC-PVTZ-JKFIT

    Orbital Energies (a.u.)
    -----------------------

    Doubly Occupied:

       1A    -26.326556     2A    -20.608426     3A    -15.566458
       4A    -11.348801     5A    -11.326879     6A    -11.275660
       7A    -11.275151     8A    -11.265582     9A    -11.264531
      10A    -11.253541    11A    -11.252188    12A    -11.245182
      13A    -11.240155    14A    -11.239415    15A     -1.644439
      16A     -1.423085    17A     -1.251252    18A     -1.181114
      19A     -1.110077    20A     -1.040210    21A     -1.035548
      22A     -1.019380    23A     -0.891286    24A     -0.874477
      25A     -0.856114    26A     -0.824483    27A     -0.772579
      28A     -0.746251    29A     -0.725524    30A     -0.710611
      31A     -0.695856    32A     -0.666270    33A     -0.660485
      34A     -0.642639    35A     -0.635772    36A     -0.613813
      37A     -0.607881    38A     -0.600089    39A     -0.577807
      40A     -0.542874    41A     -0.533016    42A     -0.531123
      43A     -0.524994    44A     -0.492671    45A     -0.420078
      46A     -0.380532    47A     -0.360232    48A     -0.349382
      49A     -0.329509

  @DF-RHF Final Energy:  -650.17262970431921

   => Energetics <=

    Nuclear Repulsion Energy =            813.2541101116496520
    One-Electron Energy =               -2501.3335246745336917
    Two-Electron Energy =                1037.9067848585648335
    DFT Exchange-Correlation Energy =       0.0000000000000000
    Empirical Dispersion Energy =           0.0000000000000000
    PCM Polarization Energy =               0.0000000000000000
    EFP Energy =                            0.0000000000000000
    Total Energy =                       -650.1726297043192062
  Basis Set: (AUG-CC-PVTZ AUX)
    Blend: AUG-CC-PVTZ-RI
    Molecular point group: c1

    Geometry (in Angstrom), charge = 0, multiplicity = 1:

       Center              X                  Y                   Z               Mass
    ------------   -----------------  -----------------  -----------------  -----------------
           C         -1.322034567064     0.755429683923    -0.800558656794    12.000000000000
           C         -2.400034567064     1.328429683923    -0.127558656794    12.000000000000
           C          1.801965432936     0.376429683923    -1.361558656794    12.000000000000
           C          0.937965432936    -1.816570316077    -0.881558656794    12.000000000000
           C         -1.407034567064     0.712429683923     1.987441343206    12.000000000000
           C          2.851965432936    -0.240570316077    -2.022558656794    12.000000000000
           C          2.025965432936    -2.335570316077    -1.563558656794    12.000000000000
           C         -0.286034567064     0.160429683923    -0.080558656794    12.000000000000
           C          0.830965432936    -0.433570316077    -0.783558656794    12.000000000000
           C         -2.443034567064     1.307429683923     1.266441343206    12.000000000000
           C         -0.329034567064     0.139429683923     1.313441343206    12.000000000000
           N          2.988965432936    -1.580570316077    -2.138558656794    14.003074004780
           O         -3.496034567064     1.867429683923     1.923441343206    15.994914619560
           F          0.658965432936    -0.428570316077     2.020441343206    18.998403224000
           H         -1.303034567064     0.779429683923    -1.887558656794     1.007825032070
           H         -3.205034567064     1.789429683923    -0.694558656794     1.007825032070
           H          1.752965432936     1.459429683923    -1.305558656794     1.007825032070
           H          0.198965432936    -2.479570316077    -0.443558656794     1.007825032070
           H         -1.435034567064     0.692429683923     3.073441343206     1.007825032070
           H          3.635965432936     0.346429683923    -2.489558656794     1.007825032070
           H          2.154965432936    -3.407570316077    -1.669558656794     1.007825032070
           H         -3.382034567064     1.773429683923     2.882441343206     1.007825032070

  Basis Set: AUG-CC-PVTZ
    Blend: AUG-CC-PVTZ
  Basis Set: (AUG-CC-PVTZ AUX)
    Blend: AUG-CC-PVTZ-JKFIT
  Basis Set: (AUG-CC-PVTZ AUX)
    Blend: AUG-CC-PVTZ-JKFIT
	 Reference Energy          =    -650.1726297043192062 [Eh]
	 Singles Energy            =      -0.0000000000000002 [Eh]
	 Same-Spin Energy          =      -0.6772220761378809 [Eh]
	 Opposite-Spin Energy      =      -2.0193133376385721 [Eh]
	 Correlation Energy        =      -2.6965354137764530 [Eh]
	 Total Energy              =    -652.8691651180956796 [Eh]

	 ================> DF-SCS-MP2 Energies <==================
	-----------------------------------------------------------
	 SCS Same-Spin Scale       =       0.3333333333333333 [-]
	 SCS Opposite-Spin Scale   =       1.2000000000000000 [-]
	 SCS Same-Spin Energy      =      -0.2257406920459603 [Eh]
	 SCS Opposite-Spin Energy  =      -2.4231760051662863 [Eh]
	 SCS Correlation Energy    =      -2.6489166972122464 [Eh]
	 SCS Total Energy          =    -652.8215464015314637 [Eh]
	-----------------------------------------------------------

  -Total Gradient:
     Atom            X                  Y                   Z
    ------   -----------------  -----------------  -----------------
       1        0.008192157776    -0.005501892048    -0.014223588678
       2        0.003914616840    -0.002379332426     0.002842067679
       3       -0.002726206486     0.005931035525     0.003194062208
       4       -0.006677634371    -0.001407214221     0.003011589355
       5       -0.007593975673     0.004168744735     0.001139031513
       6       -0.005875721885     0.012532346597     0.004384275756
       7       -0.011905966725    -0.002474113706     0.007390138688
       8        0.001066753388    -0.000490363663    -0.004449409912
       9       -0.004097478932     0.002200510667     0.000298263061
      10       -0.008985332254     0.005102060635    -0.004441780527
      11        0.022523867026    -0.010922326024     0.006232620344
      12        0.013162748309    -0.007358010208    -0.008423217132
      13        0.003023697493    -0.001618793126     0.000272084043
      14        0.001102791888    -0.000908836606     0.002888696423
      15       -0.002596110975     0.001803856401    -0.006247405045
      16       -0.003113887645     0.001993129093    -0.005325557775
      17        0.001650065394     0.004769121657    -0.001362352950
      18       -0.001938405717    -0.004431020554     0.000963238524
      19       -0.001106232707     0.000278772271     0.004372261112
      20        0.002320441423     0.001008992630    -0.001421528698
      21        0.000870664919    -0.002637366035    -0.000571319777
      22       -0.001210851087     0.000340698409     0.009477831790

*** Psi4 exiting successfully. Buy a developer a beer!
