                               Psi4 1.1 release

  ==> Input File <==

--------------------------------------------------------------------------

memory 5 Gb

molecule phepyrFOH_neutral {
  symmetry C1
  0 1
  C      1.885   -1.036   -0.112
  C      0.807   -0.463   0.561
  C      4.907   -3.081   0.572
  C      4.245   -1.942   -1.440
  C      1.800   -1.079   2.676
  C      5.960   -3.625   -0.146
  C      5.328   -2.537   -2.068
  C      2.921   -1.631   0.608
  C      4.038   -2.225   -0.095
  C      0.764   -0.484   1.955
  C      2.878   -1.652   2.002
  N      6.193   -3.374   -1.454
  O      -0.289   0.076   2.612
  F      3.866   -2.220   2.709
  H      1.904   -1.012   -1.199
  H      0.002   -0.002   -0.006
  H      4.777   -3.326   1.621
  H      3.588   -1.278   -1.993
  H      1.772   -1.099   3.762
  H      6.665   -4.300   0.328
  H      5.534   -2.348   -3.117
  H      -0.175   -0.018   3.571
  units Angstrom
}

dih_string = "1 8 9 3 195"
set optking fixed_dihedral = $dih_string

optimize('MP2/aug-cc-PVTZ')
--------------------------------------------------------------------------

    Molecular point group: c1
  Charge       = 0
  Multiplicity = 1
  Basis Set: AUG-CC-PVTZ
    Blend: AUG-CC-PVTZ
  Basis Set: (AUG-CC-PVTZ AUX)
    Blend: AUG-CC-PVTZ-JKFIT
  @DF-RHF Final Energy:  -650.16070380427186
    Total Energy =                       -650.1607038042718614
  Basis Set: (AUG-CC-PVTZ AUX)
    Blend: AUG-CC-PVTZ-RI
    Molecular point group: c1
  Basis Set: AUG-CC-PVTZ
    Blend: AUG-CC-PVTZ
  Basis Set: (AUG-CC-PVTZ AUX)
    Blend: AUG-CC-PVTZ-JKFIT
  Basis Set: (AUG-CC-PVTZ AUX)
    Blend: AUG-CC-PVTZ-JKFIT
	 Reference Energy          =    -650.1607038042718614 [Eh]
	 Singles Energy            =      -0.0000000000000013 [Eh]
	 Same-Spin Energy          =      -0.6795547864799990 [Eh]
	 Opposite-Spin Energy      =      -2.0220025999727702 [Eh]
	 Correlation Energy        =      -2.7015573864527704 [Eh]
	 Total Energy              =    -652.8622611907246664 [Eh]
	 SCS Total Energy          =    -652.8136251863992356 [Eh]
  @DF-RHF Final Energy:  -650.16948494160101
    Total Energy =                       -650.1694849416010129
  @DF-RHF Final Energy:  -650.17423371536358
    Total Energy =                       -650.1742337153634708
  @DF-RHF Final Energy:  -650.17646467366171
    Total Energy =                       -650.1764646736617124
  @DF-RHF Final Energy:  -650.17758597951183
    Total Energy =                       -650.1775859795118322
  @DF-RHF Final Energy:  -650.17822461938897
    Total Energy =                       -650.1782246193890842
  @DF-RHF Final Energy:  -650.17858164878442
    Total Energy =                       -650.1785816487845295
  @DF-RHF Final Energy:  -650.17869647877296
    Total Energy =                       -650.1786964787729630
  @DF-RHF Final Energy:  -650.17873513366453
    Total Energy =                       -650.1787351336645315
  @DF-RHF Final Energy:  -650.17873855791856
    Total Energy =                       -650.1787385579184502
  @DF-RHF Final Energy:  -650.17873970457629
    Total Energy =                       -650.1787397045764010
  @DF-RHF Final Energy:  -650.17874601207086
    Total Energy =                       -650.1787460120708602
  @DF-RHF Final Energy:  -650.17873170105133
    Total Energy =                       -650.1787317010514471
  @DF-RHF Final Energy:  -650.17869957474886
    Total Energy =                       -650.1786995747488618
  Charge       = 0
  Multiplicity = 1
  Basis Set: AUG-CC-PVTZ
    Blend: AUG-CC-PVTZ
  Basis Set: (AUG-CC-PVTZ AUX)
    Blend: AUG-CC-PVTZ-JKFIT

    Orbital Energies (a.u.)
    -----------------------

    Doubly Occupied:

       1A    -26.326219     2A    -20.614174     3A    -15.559863
       4A    -11.351213     5A    -11.329717     6A    -11.272132
       7A    -11.270277     8A    -11.268984     9A    -11.264535
      10A    -11.259754    11A    -11.252043    12A    -11.242928
      13A    -11.236931    14A    -11.232852    15A     -1.645683
      16A     -1.432144    17A     -1.257582    18A     -1.186932
      19A     -1.112452    20A     -1.046312    21A     -1.032208
      22A     -1.026407    23A     -0.896975    24A     -0.881861
      25A     -0.851638    26A     -0.832048    27A     -0.775898
      28A     -0.751084    29A     -0.726242    30A     -0.712619
      31A     -0.699172    32A     -0.674074    33A     -0.659152
      34A     -0.637964    35A     -0.634848    36A     -0.616182
      37A     -0.613874    38A     -0.592286    39A     -0.583078
      40A     -0.550880    41A     -0.546592    42A     -0.540447
      43A     -0.510063    44A     -0.503621    45A     -0.417097
      46A     -0.407701    47A     -0.363234    48A     -0.346295
      49A     -0.315231

  @DF-RHF Final Energy:  -650.17873888670272

   => Energetics <=

    Nuclear Repulsion Energy =            813.1838925500846926
    One-Electron Energy =               -2501.0022646074139629
    Two-Electron Energy =                1037.6396331706264391
    DFT Exchange-Correlation Energy =       0.0000000000000000
    Empirical Dispersion Energy =           0.0000000000000000
    PCM Polarization Energy =               0.0000000000000000
    EFP Energy =                            0.0000000000000000
    Total Energy =                       -650.1787388867028312
  Basis Set: (AUG-CC-PVTZ AUX)
    Blend: AUG-CC-PVTZ-RI
    Molecular point group: c1
  Basis Set: AUG-CC-PVTZ
    Blend: AUG-CC-PVTZ
  Basis Set: (AUG-CC-PVTZ AUX)
    Blend: AUG-CC-PVTZ-JKFIT
  Basis Set: (AUG-CC-PVTZ AUX)
    Blend: AUG-CC-PVTZ-JKFIT
	 Reference Energy          =    -650.1787388867027175 [Eh]
	 Singles Energy            =      -0.0000000000000001 [Eh]
	 Same-Spin Energy          =      -0.6772365286829294 [Eh]
	 Opposite-Spin Energy      =      -2.0178215924498377 [Eh]
	 Correlation Energy        =      -2.6950581211327673 [Eh]
	 Total Energy              =    -652.8737970078354920 [Eh]

	 ================> DF-SCS-MP2 Energies <==================
	-----------------------------------------------------------
	 SCS Same-Spin Scale       =       0.3333333333333333 [-]
	 SCS Opposite-Spin Scale   =       1.2000000000000000 [-]
	 SCS Same-Spin Energy      =      -0.2257455095609764 [Eh]
	 SCS Opposite-Spin Energy  =      -2.4213859109398053 [Eh]
	 SCS Correlation Energy    =      -2.6471314205007817 [Eh]
	 SCS Total Energy          =    -652.8258703072034450 [Eh]
	-----------------------------------------------------------

  -Total Gradient:
     Atom            X                  Y                   Z
    ------   -----------------  -----------------  -----------------
       1        0.001684242039     0.003085093389     0.000147077402
       2       -0.000017840233     0.000014528614     0.000016313768
       3        0.002103119347     0.002817840938     0.000978527343
       4        0.000020682581     0.000025202301     0.000016141342
       5        0.000015831450    -0.000028530653    -0.000018364657
       6       -0.000014792596    -0.000002802845    -0.000002944464
       7        0.000037818211    -0.000016175229     0.000004904681
       8       -0.001470452037    -0.003150269150     0.000312127092
       9       -0.002383000431    -0.002845980689    -0.001478423498
      10        0.000016479406     0.000009776393    -0.000008443468
      11        0.000046377441     0.000056052081     0.000044843727
      12       -0.000023310627     0.000017903440    -0.000003119047
      13       -0.000004266352    -0.000008398410     0.000007159314
      14       -0.000030887243     0.000015725642    -0.000015780832
      15        0.000007166644     0.000000608201     0.000006363469
      16        0.000007983502    -0.000003825139    -0.000001116790
      17        0.000008209701     0.000008431668    -0.000007126380
      18        0.000004436237     0.000005056118     0.000014075808
      19       -0.000009577802     0.000005962993    -0.000000621799
      20        0.000004521027     0.000000896385    -0.000004190697
      21       -0.000002189010    -0.000005005986     0.000001694994
      22       -0.000000551257    -0.000002090064    -0.000009097298

  **** Optimization is complete! (in 15 steps) ****
    Final optimized geometry and variables:
    Molecular point group: c1

    Geometry (in Angstrom), charge = 0, multiplicity = 1:

    C           -1.345789187067     0.689646899609    -0.737696411041
    C           -2.412133946999     1.299383185259    -0.108676156947
    C            1.760744640889    -1.378695375482    -0.184462974048
    C            1.089248252923    -0.164914343362    -2.098500111212
    C           -1.433823506146     0.762950267818     2.005315895850
    C            2.811661670781    -1.877645701922    -0.938144260109
    C            2.168616249590    -0.712773378345    -2.769419824585
    C           -0.290177819019     0.083745791191    -0.045249886391
    C            0.843210095182    -0.502784573176    -0.766580418110
    C           -2.461694638614     1.337210605236     1.277233838253
    C           -0.384630195242     0.160117403582     1.341275379036
    N            3.033751199396    -1.565322037062    -2.215623483478
    O           -3.530121995812     1.943864226972     1.856381602984
    F            0.594403899391    -0.338743785080     2.122219837916
    H           -1.350295684800     0.650876826066    -1.814720479274
    H           -3.212999254767     1.741972443265    -0.678554884304
    H            1.655147788271    -1.699290570622     0.835823867248
    H            0.465187704577     0.542597648238    -2.619651167550
    H           -1.420811250485     0.777948050040     3.084508104456
    H            3.512766810814    -2.564904098350    -0.485449000166
    H            2.350513613857    -0.447149942271    -3.801487304637
    H           -3.441572531261     1.898978699935     2.813339205230

*** Psi4 exiting successfully. Buy a developer a beer!
