                              Psi4 1.0.0 Driver

  ==> Input File <==

--------------------------------------------------------------------------

memory 1000 mb

molecule butane {
  symmetry C1
  0 1
  H      1.604   0.760   -8.260
  H      1.745   2.388   -8.880
  H      2.043   1.024   -9.930
  C      2.142   1.395   -8.932
  H      4.169   2.051   -9.210
  H      3.731   1.788   -7.539
  C      3.631   1.416   -8.537
  H      5.006   -0.037   -9.318
  H      4.567   -0.302   -7.649
  C      4.203   -0.012   -8.612
  H      3.495   -1.978   -9.109
  H      2.733   -0.697   -10.020
  H      2.293   -0.961   -8.351
  C      3.097   -0.986   -9.057
  units Angstrom
}

dih_string = "4 7 10 14 0.001"
set optking fixed_dihedral = $dih_string

optimize('B3LYP/cc-PVDZ')
--------------------------------------------------------------------------

    Molecular point group: c1
  Charge       = 0
  Multiplicity = 1
  Basis Set: CC-PVDZ
   => B3LYP Composite Functional <=
  Basis Set:
  @DF-RKS Final Energy:  -158.43036915590810
    Total Energy =                       -158.4303691559080960
    Molecular point group: c1
  Basis Set: CC-PVDZ
  Basis Set:
   => B3LYP Composite Functional <=
  Basis Set: CC-PVDZ
   => B3LYP Composite Functional <=
  Basis Set:
  @DF-RKS Final Energy:  -158.44118336574991
    Total Energy =                       -158.4411833657499074
  Basis Set: CC-PVDZ
  Basis Set:
   => B3LYP Composite Functional <=
  Basis Set: CC-PVDZ
   => B3LYP Composite Functional <=
  Basis Set:
  @DF-RKS Final Energy:  -158.44648629142313
    Total Energy =                       -158.4464862914231276
  Basis Set: CC-PVDZ
  Basis Set:
  @DF-RKS Final Energy:  -158.44873969875624
    Total Energy =                       -158.4487396987562420
   => B3LYP Composite Functional <=
  Basis Set:
  @DF-RKS Final Energy:  -158.44956222369765
    Total Energy =                       -158.4495622236976544
  Basis Set: CC-PVDZ
  Basis Set:
   => B3LYP Composite Functional <=
  Basis Set: CC-PVDZ
   => B3LYP Composite Functional <=
  Basis Set:
  @DF-RKS Final Energy:  -158.44973106781794
    Total Energy =                       -158.4497310678179360
  Basis Set: CC-PVDZ
  Basis Set:
   => B3LYP Composite Functional <=
  Charge       = 0
  Multiplicity = 1
  Basis Set: CC-PVDZ
   => B3LYP Composite Functional <=
  Basis Set:

    Orbital Energies (a.u.)
    -----------------------

    Doubly Occupied:

       1A    -10.180293     2A    -10.180163     3A    -10.175137
       4A    -10.175110     5A     -0.785986     6A     -0.715878
       7A     -0.640512     8A     -0.556319     9A     -0.460033
      10A     -0.444382    11A     -0.403412    12A     -0.388774
      13A     -0.372684    14A     -0.360931    15A     -0.326877
      16A     -0.320936    17A     -0.304688

  @DF-RKS Final Energy:  -158.44973455532528

   => Energetics <=

    Nuclear Repulsion Energy =            131.7171015038673261
    One-Electron Energy =                -471.9515507388366586
    Two-Electron Energy =                 202.3678914050883009
    DFT Exchange-Correlation Energy =     -20.5831767254442148
    Empirical Dispersion Energy =           0.0000000000000000
    PCM Polarization Energy =               0.0000000000000000
    EFP Energy =                            0.0000000000000000
    Total Energy =                       -158.4497345553252785
    Molecular point group: c1
  Basis Set: CC-PVDZ
  Basis Set:
   => B3LYP Composite Functional <=

  -Total Gradient:
     Atom            X                  Y                   Z
    ------   -----------------  -----------------  -----------------
       1       -0.000052376875    -0.000020925606     0.000007958150
       2       -0.000045345451     0.000011769489    -0.000007638825
       3       -0.000040693169    -0.000014474366    -0.000033015721
       4        0.000290688086    -0.000078083527     0.000048068071
       5       -0.000005765477    -0.000014169131     0.000016095549
       6        0.000006317362    -0.000009613749    -0.000023541468
       7       -0.000122359602     0.000114604631     0.000001654141
       8       -0.000011402062     0.000007228530     0.000021172231
       9       -0.000005501761     0.000009981322    -0.000019756309
      10       -0.000004015133    -0.000162142548    -0.000036939198
      11       -0.000024638701    -0.000037851074    -0.000010811723
      12       -0.000040112176    -0.000014934131    -0.000033374575
      13       -0.000050032799    -0.000019704787     0.000008062347
      14        0.000152496077     0.000246574743     0.000075015060

  **** Optimization is complete! (in 7 steps) ****
    Final optimized geometry and variables:
    Molecular point group: c1

    Geometry (in Angstrom), charge = 0, multiplicity = 1:

    H           -1.778331327009     0.561993123632     0.605962014666
    H           -1.439629416632     2.192222057276    -0.009177116003
    H           -1.400110140487     0.803145290054    -1.113570221909
    C           -1.145774342277     1.133007539189    -0.093096914134
    H            0.913622832480     1.618735292947    -0.478469703182
    H            0.540464819013     1.380824156279     1.218781920405
    C            0.348026300406     0.970049655378     0.212575285720
    H            1.759619448409    -0.491936250273    -0.588198963138
    H            1.386105052196    -0.729964047126     1.108957338988
    C            0.927897972827    -0.476951055310     0.137224512505
    H            0.467896689714    -2.567768398050    -0.257071332302
    H           -0.500013215991    -1.442602724190    -1.230684716646
    H           -0.878455168878    -1.683595092377     0.488827638511
    C           -0.052141718034    -1.595959859222    -0.235316573146

*** Psi4 exiting successfully. Buy a developer a beer!
