 Gaussian 09, Revision B.01,
 Gaussian 09:  EM64L-G09RevB.01 12-Aug-2010

 ------------------------------------------------------
 # opt=modredundant B3LYP/cc-pVDZ Geom=PrintInputOrient
 ------------------------------------------------------

 -------------------------------
 PRL Dihedral Scan at MP2/6-31G*
 -------------------------------
 Symbolic Z-matrix:
 Charge =  0 Multiplicity = 1

 SCF Done:  E(RB3LYP) =  -367.407838485     A.U. after   14 cycles
 SCF Done:  E(RB3LYP) =  -367.407841377     A.U. after    7 cycles
 Optimization completed.
    -- Stationary point found.
 SCF Done:  E(RB3LYP) =  -367.405193655     A.U. after   12 cycles
 SCF Done:  E(RB3LYP) =  -367.407329793     A.U. after   11 cycles
 SCF Done:  E(RB3LYP) =  -367.407560902     A.U. after   10 cycles
 SCF Done:  E(RB3LYP) =  -367.407606590     A.U. after   10 cycles
 SCF Done:  E(RB3LYP) =  -367.407625836     A.U. after   10 cycles
 SCF Done:  E(RB3LYP) =  -367.407635526     A.U. after    9 cycles
 SCF Done:  E(RB3LYP) =  -367.407637161     A.U. after    8 cycles
 SCF Done:  E(RB3LYP) =  -367.407637450     A.U. after    7 cycles
 Optimization completed.
 SCF Done:  E(RB3LYP) =  -367.398620045     A.U. after    8 cycles
 SCF Done:  E(RB3LYP) =  -367.398620180     A.U. after    7 cycles
    -- Stationary point found.
 SCF Done:  E(RB3LYP) =  -367.393141315     A.U. after   12 cycles
 SCF Done:  E(RB3LYP) =  -367.395946238     A.U. after   12 cycles
 SCF Done:  E(RB3LYP) =  -367.396271946     A.U. after   11 cycles
 SCF Done:  E(RB3LYP) =  -367.396365848     A.U. after   11 cycles
 SCF Done:  E(RB3LYP) =  -367.396383061     A.U. after   10 cycles
 SCF Done:  E(RB3LYP) =  -367.396389616     A.U. after   10 cycles
 SCF Done:  E(RB3LYP) =  -367.396389980     A.U. after    8 cycles
 SCF Done:  E(RB3LYP) =  -367.396390046     A.U. after    7 cycles
 Optimization completed.
    -- Stationary point found.

                         Standard orientation:
 ---------------------------------------------------------------------
 Center     Atomic      Atomic             Coordinates (Angstroms)
 Number     Number       Type             X           Y           Z
 ---------------------------------------------------------------------
      1          6           0       -2.465392    0.492556    0.122598
      2          6           0       -0.977397    0.822504   -0.049274
      3          7           0       -0.307400   -0.408133   -0.250859
      4          6           0       -1.244351   -1.450201   -0.090534
      5          6           0       -2.493916   -1.014878    0.117434
      6          6           0        1.095706   -0.759765    0.008460
      7          6           0        2.141351    0.352737   -0.043137
      8          6           0        3.550247   -0.223438    0.127459
      9          6           0       -0.493928    2.079914   -0.041547
     10          1           0       -3.052809    0.923392   -0.708154
     11          1           0       -2.868725    0.932236    1.051769
     12          1           0       -0.888444   -2.477570   -0.170542
     13          1           0       -3.381549   -1.634417    0.220547
     14          1           0        1.167225   -1.243184    1.005534
     15          1           0        1.371096   -1.536214   -0.728570
     16          1           0        2.074277    0.888672   -1.004562
     17          1           0        1.947317    1.086771    0.752639
     18          1           0        4.308080    0.575073    0.110517
     19          1           0        3.652378   -0.759279    1.086553
     20          1           0        3.796182   -0.935459   -0.678523
     21          1           0        0.546935    2.338556   -0.204919
     22          1           0       -1.194078    2.901773    0.114963
 ---------------------------------------------------------------------

 The electronic state is 1-A.
 Alpha  occ. eigenvalues --  -14.34898 -10.22500 -10.21905 -10.21063 -10.19153
 Alpha  occ. eigenvalues --  -10.19020 -10.18624 -10.17030 -10.15133  -0.95807
 Alpha  occ. eigenvalues --   -0.80936  -0.76552  -0.75159  -0.67982  -0.65108
 Alpha  occ. eigenvalues --   -0.60800  -0.56429  -0.53051  -0.49278  -0.47990
 Alpha  occ. eigenvalues --   -0.44156  -0.43201  -0.42496  -0.41304  -0.40341
 Alpha  occ. eigenvalues --   -0.39389  -0.37367  -0.36221  -0.35218  -0.34557
 Alpha  occ. eigenvalues --   -0.32839  -0.31559  -0.26056  -0.17375
 Alpha virt. eigenvalues --    0.01226   0.04762   0.06080   0.07312   0.08651
 Alpha virt. eigenvalues --    0.09724   0.10631   0.10906   0.12507   0.13175
 Alpha virt. eigenvalues --    0.14724   0.15006   0.15845   0.16121   0.17288

 Mulliken atomic charges:
              1
     1  C    0.090423
     2  C   -0.024691
     3  N   -0.252896
     4  C    0.146426
     5  C   -0.124129
     6  C    0.093369
     7  C   -0.071026
     8  C   -0.000305
     9  C   -0.020542
    10  H    0.045237
    11  H    0.040584
    12  H   -0.020349
    13  H   -0.033313
    14  H    0.009732
    15  H    0.014886
    16  H    0.030251
    17  H    0.037852
    18  H    0.017504
    19  H    0.019926
    20  H    0.019028
    21  H   -0.004565
    22  H   -0.013400
 Sum of Mulliken atomic charges =   0.00000

 Dipole moment (field-independent basis, Debye):
    X=              0.7619    Y=             -0.9818    Z=              0.2074  Tot=              1.2600
 Quadrupole moment (field-independent basis, Debye-Ang):
   XX=            -52.4209   YY=            -55.6238   ZZ=            -58.7655
   XY=             -0.3455   XZ=             -0.6948   YZ=              0.3775

 Normal termination of Gaussian 09 at Sun Mar 22 18:32:03 2015.
