 Gaussian 09, Revision B.01,
 Gaussian 09:  EM64L-G09RevB.01 12-Aug-2010

 ------------------------------------------------------
 # opt=modredundant B3LYP/cc-pVDZ Geom=PrintInputOrient
 ------------------------------------------------------

 -------------------------------
 PRL Dihedral Scan at MP2/6-31G*
 -------------------------------
 Symbolic Z-matrix:
 Charge =  0 Multiplicity = 1

 SCF Done:  E(RB3LYP) =  -367.407838485     A.U. after   14 cycles
 SCF Done:  E(RB3LYP) =  -367.407841388     A.U. after    7 cycles
 Optimization completed.
    -- Stationary point found.
 SCF Done:  E(RB3LYP) =  -367.406355488     A.U. after   12 cycles
 SCF Done:  E(RB3LYP) =  -367.406348363     A.U. after    9 cycles
 SCF Done:  E(RB3LYP) =  -367.407280668     A.U. after   11 cycles
 SCF Done:  E(RB3LYP) =  -367.407402614     A.U. after   10 cycles
 SCF Done:  E(RB3LYP) =  -367.407446287     A.U. after   10 cycles
 SCF Done:  E(RB3LYP) =  -367.407478377     A.U. after   10 cycles
 SCF Done:  E(RB3LYP) =  -367.407486657     A.U. after   10 cycles
 SCF Done:  E(RB3LYP) =  -367.407487720     A.U. after    8 cycles
 Optimization completed.
 SCF Done:  E(RB3LYP) =  -367.395588799     A.U. after   12 cycles
 SCF Done:  E(RB3LYP) =  -367.395828264     A.U. after   11 cycles
 SCF Done:  E(RB3LYP) =  -367.395838735     A.U. after   10 cycles
 SCF Done:  E(RB3LYP) =  -367.395839543     A.U. after    8 cycles
 SCF Done:  E(RB3LYP) =  -367.395839604     A.U. after    7 cycles
    -- Stationary point found.
 SCF Done:  E(RB3LYP) =  -367.387508810     A.U. after   12 cycles
 SCF Done:  E(RB3LYP) =  -367.391048880     A.U. after   12 cycles
 SCF Done:  E(RB3LYP) =  -367.391233234     A.U. after   11 cycles
 SCF Done:  E(RB3LYP) =  -367.391240964     A.U. after    9 cycles
 SCF Done:  E(RB3LYP) =  -367.391241280     A.U. after    7 cycles
 Optimization completed.
    -- Stationary point found.

                         Standard orientation:
 ---------------------------------------------------------------------
 Center     Atomic      Atomic             Coordinates (Angstroms)
 Number     Number       Type             X           Y           Z
 ---------------------------------------------------------------------
      1          6           0       -2.349489   -0.283833    0.616744
      2          6           0       -1.384090    0.739216    0.030518
      3          7           0       -0.202394    0.058738   -0.464175
      4          6           0       -0.595147   -1.317282   -0.515150
      5          6           0       -1.784996   -1.566965    0.047768
      6          6           0        1.028742    0.247650    0.344718
      7          6           0        2.295553   -0.159003   -0.410804
      8          6           0        3.565773    0.122445    0.395230
      9          6           0       -1.677029    2.001539   -0.301444
     10          1           0       -3.384034   -0.072033    0.304250
     11          1           0       -2.348797   -0.301987    1.725208
     12          1           0        0.081406   -2.035273   -0.978902
     13          1           0       -2.273481   -2.539294    0.097341
     14          1           0        1.088314    1.319059    0.593357
     15          1           0        0.961686   -0.308047    1.303624
     16          1           0        2.255970   -1.232882   -0.664560
     17          1           0        2.317952    0.386344   -1.369837
     18          1           0        4.467250   -0.177288   -0.162178
     19          1           0        3.661557    1.195790    0.632161
     20          1           0        3.567397   -0.428467    1.351250
     21          1           0       -0.965880    2.615680   -0.857881
     22          1           0       -2.608489    2.464638    0.029917
 ---------------------------------------------------------------------

 The electronic state is 1-A.
 Alpha  occ. eigenvalues --  -14.33485 -10.21546 -10.21346 -10.20727 -10.19344
 Alpha  occ. eigenvalues --  -10.18614 -10.18240 -10.17933 -10.17016  -0.94831
 Alpha  occ. eigenvalues --   -0.80249  -0.75910  -0.75504  -0.67736  -0.65190
 Alpha  occ. eigenvalues --   -0.59269  -0.56408  -0.52707  -0.49255  -0.46609
 Alpha  occ. eigenvalues --   -0.44955  -0.44430  -0.41739  -0.40751  -0.40058
 Alpha  occ. eigenvalues --   -0.38259  -0.37965  -0.35975  -0.34948  -0.34413
 Alpha  occ. eigenvalues --   -0.32858  -0.28994  -0.26020  -0.19802
 Alpha virt. eigenvalues --    0.00820   0.02525   0.06449   0.07270   0.08167
 Alpha virt. eigenvalues --    0.09591   0.11055   0.11315   0.12060   0.13068
 Alpha virt. eigenvalues --    0.14287   0.14750   0.15393   0.16469   0.17571

 Mulliken atomic charges:
              1
     1  C    0.104531
     2  C   -0.087879
     3  N   -0.243928
     4  C    0.107602
     5  C   -0.081476
     6  C    0.102964
     7  C   -0.035919
     8  C   -0.016257
     9  C    0.045178
    10  H    0.030660
    11  H    0.034345
    12  H   -0.011632
    13  H   -0.031960
    14  H    0.010271
    15  H   -0.002677
    16  H    0.009239
    17  H    0.014298
    18  H    0.016771
    19  H    0.019091
    20  H    0.019545
    21  H   -0.001525
    22  H   -0.001241
 Sum of Mulliken atomic charges =   0.00000

 Dipole moment (field-independent basis, Debye):
    X=              0.3933    Y=             -0.5060    Z=              0.7700  Tot=              1.0018
 Quadrupole moment (field-independent basis, Debye-Ang):
   XX=            -53.4266   YY=            -54.8083   ZZ=            -58.4648
   XY=              0.2928   XZ=             -2.0055   YZ=              0.3341

 Normal termination of Gaussian 09 at Mon Mar 23 15:58:45 2015.
