 Gaussian 09, Revision B.01,
 Gaussian 09:  EM64L-G09RevB.01 12-Aug-2010

 ------------------------------------------------------
 # opt=modredundant B3LYP/cc-pVDZ Geom=PrintInputOrient
 ------------------------------------------------------

 -------------------------------
 PRL Dihedral Scan at MP2/6-31G*
 -------------------------------
 Symbolic Z-matrix:
 Charge =  0 Multiplicity = 1

 SCF Done:  E(RB3LYP) =  -367.407838485     A.U. after   14 cycles
 SCF Done:  E(RB3LYP) =  -367.407841382     A.U. after    7 cycles
 Optimization completed.
    -- Stationary point found.
 SCF Done:  E(RB3LYP) =  -367.403617083     A.U. after   12 cycles
 SCF Done:  E(RB3LYP) =  -367.406913777     A.U. after   11 cycles
 SCF Done:  E(RB3LYP) =  -367.407099082     A.U. after   10 cycles
 SCF Done:  E(RB3LYP) =  -367.407112112     A.U. after    9 cycles
 SCF Done:  E(RB3LYP) =  -367.407114756     A.U. after    8 cycles
 SCF Done:  E(RB3LYP) =  -367.407115729     A.U. after    8 cycles
 Optimization completed.
 SCF Done:  E(RB3LYP) =  -367.401513741     A.U. after   12 cycles
 SCF Done:  E(RB3LYP) =  -367.404958435     A.U. after   11 cycles
 SCF Done:  E(RB3LYP) =  -367.402337426     A.U. after   11 cycles
 SCF Done:  E(RB3LYP) =  -367.402382662     A.U. after   10 cycles
 SCF Done:  E(RB3LYP) =  -367.402383307     A.U. after    7 cycles
 SCF Done:  E(RB3LYP) =  -367.402383381     A.U. after    7 cycles
    -- Stationary point found.
 SCF Done:  E(RB3LYP) =  -367.399744719     A.U. after   11 cycles
 SCF Done:  E(RB3LYP) =  -367.403856163     A.U. after   12 cycles
 SCF Done:  E(RB3LYP) =  -367.404184565     A.U. after   11 cycles
 SCF Done:  E(RB3LYP) =  -367.404192976     A.U. after    8 cycles
 SCF Done:  E(RB3LYP) =  -367.404193532     A.U. after    7 cycles
 SCF Done:  E(RB3LYP) =  -367.404193676     A.U. after    7 cycles
 Optimization completed.
    -- Stationary point found.

                         Standard orientation:
 ---------------------------------------------------------------------
 Center     Atomic      Atomic             Coordinates (Angstroms)
 Number     Number       Type             X           Y           Z
 ---------------------------------------------------------------------
      1          6           0       -2.283659    0.536695   -0.374085
      2          6           0       -0.876468    0.859499    0.133808
      3          7           0       -0.239545   -0.372688    0.344585
      4          6           0       -1.116811   -1.420107    0.032864
      5          6           0       -2.312039   -0.976441   -0.388630
      6          6           0        1.094042   -0.571378    0.881331
      7          6           0        2.195557   -0.806314   -0.175038
      8          6           0        2.857452    0.470591   -0.699544
      9          6           0       -0.359794    2.086640    0.341120
     10          1           0       -2.449813    0.974217   -1.374647
     11          1           0       -3.053686    0.970776    0.288071
     12          1           0       -0.771983   -2.446745    0.154892
     13          1           0       -3.157316   -1.590711   -0.687980
     14          1           0        1.345859    0.290323    1.520343
     15          1           0        1.047263   -1.448853    1.549101
     16          1           0        2.972456   -1.443821    0.285653
     17          1           0        1.769139   -1.393915   -1.005838
     18          1           0        3.652433    0.237007   -1.426383
     19          1           0        2.128282    1.129913   -1.196893
     20          1           0        3.317354    1.042141    0.124774
     21          1           0        0.661248    2.244982    0.687141
     22          1           0       -0.974110    2.968392    0.158711
 ---------------------------------------------------------------------

 The electronic state is 1-A.
 Alpha  occ. eigenvalues --  -14.35084 -10.22445 -10.21846 -10.21438 -10.19193
 Alpha  occ. eigenvalues --  -10.18957 -10.17917 -10.16932 -10.15183  -0.96477
 Alpha  occ. eigenvalues --   -0.80924  -0.75822  -0.75513  -0.68324  -0.65180
 Alpha  occ. eigenvalues --   -0.60171  -0.57981  -0.52561  -0.49625  -0.46158
 Alpha  occ. eigenvalues --   -0.45337  -0.43558  -0.42383  -0.41550  -0.39791
 Alpha  occ. eigenvalues --   -0.39408  -0.37093  -0.36786  -0.34509  -0.34326
 Alpha  occ. eigenvalues --   -0.33505  -0.32008  -0.26115  -0.17107
 Alpha virt. eigenvalues --    0.01109   0.04781   0.07042   0.07905   0.08416
 Alpha virt. eigenvalues --    0.09566   0.10733   0.11438   0.12527   0.13375
 Alpha virt. eigenvalues --    0.14325   0.14711   0.15172   0.15953   0.16008

 Mulliken atomic charges:
              1
     1  C    0.092562
     2  C   -0.028298
     3  N   -0.227955
     4  C    0.148390
     5  C   -0.134102
     6  C    0.103756
     7  C   -0.028605
     8  C   -0.026843
     9  C   -0.033313
    10  H    0.044058
    11  H    0.043841
    12  H   -0.013826
    13  H   -0.033677
    14  H    0.015900
    15  H    0.005597
    16  H    0.002832
    17  H    0.010049
    18  H    0.014405
    19  H    0.040528
    20  H    0.017878
    21  H   -0.004487
    22  H   -0.008689
 Sum of Mulliken atomic charges =   0.00000

 Dipole moment (field-independent basis, Debye):
    X=              0.5746    Y=             -1.1641    Z=              0.1265  Tot=              1.3044
 Quadrupole moment (field-independent basis, Debye-Ang):
   XX=            -53.6154   YY=            -55.8191   ZZ=            -57.9913
   XY=             -1.0979   XZ=              2.0971   YZ=             -0.8230

 Normal termination of Gaussian 09 at Sun Mar 22 17:51:49 2015.
