                               Psi4 1.1 release

  ==> Input File <==

--------------------------------------------------------------------------

memory 5 Gb

molecule phepyrFOH_cation {
  symmetry C1
  1 1
  C      1.885   -1.036   -0.112
  C      0.807   -0.463   0.561
  C      4.830   -1.443   -0.930
  C      4.321   -3.578   0.063
  C      1.800   -1.079   2.676
  C      5.894   -2.040   -1.592
  C      5.398   -4.120   -0.624
  C      2.921   -1.631   0.608
  C      4.038   -2.225   -0.095
  C      0.764   -0.484   1.955
  C      2.878   -1.652   2.002
  N      6.144   -3.345   -1.422
  O      -0.289   0.076   2.612
  F      3.866   -2.220   2.709
  H      1.904   -1.012   -1.199
  H      0.002   -0.002   -0.006
  H      4.632   -0.385   -1.072
  H      3.719   -4.212   0.708
  H      1.772   -1.099   3.762
  H      6.561   -1.511   -2.259
  H      5.691   -5.159   -0.561
  H      6.930   -3.764   -1.918
  H      -1.070   -0.496   2.543
  units Angstrom
}

dih_string = "2 10 13 23 75"
set optking fixed_dihedral = $dih_string

optimize('MP2/aug-cc-PVTZ')
--------------------------------------------------------------------------

    Molecular point group: c1
  Charge       = 1
  Multiplicity = 1
  Basis Set: AUG-CC-PVTZ
    Blend: AUG-CC-PVTZ
  Basis Set: (AUG-CC-PVTZ AUX)
    Blend: AUG-CC-PVTZ-JKFIT
  @DF-RHF Final Energy:  -650.55462597222970
    Total Energy =                       -650.5546259722295872
  Basis Set: (AUG-CC-PVTZ AUX)
    Blend: AUG-CC-PVTZ-RI
    Molecular point group: c1
  Basis Set: AUG-CC-PVTZ
    Blend: AUG-CC-PVTZ
  Basis Set: (AUG-CC-PVTZ AUX)
    Blend: AUG-CC-PVTZ-JKFIT
  Basis Set: (AUG-CC-PVTZ AUX)
    Blend: AUG-CC-PVTZ-JKFIT
	 Reference Energy          =    -650.5546259722297009 [Eh]
	 Singles Energy            =      -0.0000000000000001 [Eh]
	 Same-Spin Energy          =      -0.6686584598588012 [Eh]
	 Opposite-Spin Energy      =      -2.0132657674754992 [Eh]
	 Correlation Energy        =      -2.6819242273343002 [Eh]
	 Total Energy              =    -653.2365501995640216 [Eh]
	 SCS Total Energy          =    -653.1934310464865803 [Eh]
  @DF-RHF Final Energy:  -650.55946195743820
    Total Energy =                       -650.5594619574380886
  @DF-RHF Final Energy:  -650.56057405166564
    Total Energy =                       -650.5605740516657534
  @DF-RHF Final Energy:  -650.56094013896609
    Total Energy =                       -650.5609401389660889
  @DF-RHF Final Energy:  -650.56123964649566
    Total Energy =                       -650.5612396464957783
  @DF-RHF Final Energy:  -650.56159799896409
    Total Energy =                       -650.5615979989640891
  @DF-RHF Final Energy:  -650.56197019183799
    Total Energy =                       -650.5619701918380997
  @DF-RHF Final Energy:  -650.56230494866793
    Total Energy =                       -650.5623049486678156
  @DF-RHF Final Energy:  -650.56257279468821
    Total Energy =                       -650.5625727946880943
  @DF-RHF Final Energy:  -650.56276632616118
    Total Energy =                       -650.5627663261611815
  @DF-RHF Final Energy:  -650.56288107534249
    Total Energy =                       -650.5628810753423750
  @DF-RHF Final Energy:  -650.56291143509134
    Total Energy =                       -650.5629114350913369
  @DF-RHF Final Energy:  -650.56285607719451
    Total Energy =                       -650.5628560771945104
  @DF-RHF Final Energy:  -650.56291705378544
    Total Energy =                       -650.5629170537854407
  Charge       = 1
  Multiplicity = 1
  Basis Set: AUG-CC-PVTZ
    Blend: AUG-CC-PVTZ
  Basis Set: (AUG-CC-PVTZ AUX)
    Blend: AUG-CC-PVTZ-JKFIT

    Orbital Energies (a.u.)
    -----------------------

    Doubly Occupied:

       1A    -26.444147     2A    -20.697619     3A    -15.834079
       4A    -11.483764     5A    -11.481892     6A    -11.470556
       7A    -11.456469     8A    -11.438198     9A    -11.415520
      10A    -11.412294    11A    -11.388139    12A    -11.386733
      13A    -11.359095    14A    -11.358026    15A     -1.764340
      16A     -1.518769    17A     -1.511795    18A     -1.325599
      19A     -1.276432    20A     -1.241446    21A     -1.170235
      22A     -1.159580    23A     -1.068010    24A     -1.064903
      25A     -0.988732    26A     -0.975916    27A     -0.963226
      28A     -0.894216    29A     -0.877306    30A     -0.866904
      31A     -0.839061    32A     -0.833568    33A     -0.819370
      34A     -0.810472    35A     -0.794690    36A     -0.776075
      37A     -0.760951    38A     -0.759547    39A     -0.742810
      40A     -0.717939    41A     -0.706560    42A     -0.674404
      43A     -0.664691    44A     -0.643473    45A     -0.608972
      46A     -0.580992    47A     -0.540655    48A     -0.476471
      49A     -0.458379

  @DF-RHF Final Energy:  -650.56292290176225

   => Energetics <=

    Nuclear Repulsion Energy =            830.7645012982068238
    One-Electron Energy =               -2521.6488127731918212
    Two-Electron Energy =                1040.3213885732227482
    DFT Exchange-Correlation Energy =       0.0000000000000000
    Empirical Dispersion Energy =           0.0000000000000000
    PCM Polarization Energy =               0.0000000000000000
    EFP Energy =                            0.0000000000000000
    Total Energy =                       -650.5629229017622492
  Basis Set: (AUG-CC-PVTZ AUX)
    Blend: AUG-CC-PVTZ-RI
    Molecular point group: c1
  Basis Set: AUG-CC-PVTZ
    Blend: AUG-CC-PVTZ
  Basis Set: (AUG-CC-PVTZ AUX)
    Blend: AUG-CC-PVTZ-JKFIT
  Basis Set: (AUG-CC-PVTZ AUX)
    Blend: AUG-CC-PVTZ-JKFIT
	 Reference Energy          =    -650.5629229017622492 [Eh]
	 Singles Energy            =      -0.0000000000000003 [Eh]
	 Same-Spin Energy          =      -0.6685577650830408 [Eh]
	 Opposite-Spin Energy      =      -2.0121160921781964 [Eh]
	 Correlation Energy        =      -2.6806738572612376 [Eh]
	 Total Energy              =    -653.2435967590234895 [Eh]

	 ================> DF-SCS-MP2 Energies <==================
	-----------------------------------------------------------
	 SCS Same-Spin Scale       =       0.3333333333333333 [-]
	 SCS Opposite-Spin Scale   =       1.2000000000000000 [-]
	 SCS Same-Spin Energy      =      -0.2228525883610136 [Eh]
	 SCS Opposite-Spin Energy  =      -2.4145393106138355 [Eh]
	 SCS Correlation Energy    =      -2.6373918989748497 [Eh]
	 SCS Total Energy          =    -653.2003148007371465 [Eh]
	-----------------------------------------------------------

  -Total Gradient:
     Atom            X                  Y                   Z
    ------   -----------------  -----------------  -----------------
       1        0.000001774468    -0.000006964760     0.000011897313
       2        0.001349624083     0.001563749402     0.000504214482
       3       -0.000005767880    -0.000015324372     0.000014474762
       4       -0.000036746079    -0.000001828535     0.000025076283
       5        0.000012749082    -0.000016713969     0.000018233615
       6        0.000005138550    -0.000012542937    -0.000001433543
       7       -0.000001810465     0.000000123349     0.000000857007
       8       -0.000018357711     0.000000870873    -0.000023607016
       9        0.000050780953     0.000030179292    -0.000002634794
      10       -0.001987704043    -0.002866719023    -0.000261644495
      11       -0.000026632091     0.000024137977    -0.000008290281
      12       -0.000011638507     0.000017035139     0.000002685223
      13        0.000362909874     0.003174143225    -0.002340284103
      14        0.000023073715    -0.000009736582    -0.000021353553
      15        0.000005340688    -0.000005638667     0.000005496093
      16        0.000003939958    -0.000002328017     0.000012776388
      17       -0.000003793556    -0.000016119352     0.000006149282
      18        0.000005928691     0.000005205460    -0.000017898258
      19       -0.000009667427     0.000009360723    -0.000013769542
      20       -0.000001825002    -0.000009911153     0.000008248661
      21        0.000001529588     0.000012639550    -0.000007021739
      22       -0.000000836286     0.000001850786     0.000001603735
      23        0.000281989384    -0.001875468392     0.002086224502

  **** Optimization is complete! (in 15 steps) ****
    Final optimized geometry and variables:
    Molecular point group: c1

    Geometry (in Angstrom), charge = 1, multiplicity = 1:

    C           -1.177771703155     1.021205123750    -0.716849357635
    C           -2.246302055189     1.595974448094    -0.061497680772
    C            1.457930159656     0.280108976764    -1.808595137990
    C            1.363480971228    -1.662870596077    -0.419786809019
    C           -1.556252896878     0.534240226072     1.986809281380
    C            2.513920526555    -0.273976839442    -2.488181048321
    C            2.420015549345    -2.189536808160    -1.121397265082
    C           -0.275191687179     0.184704049244    -0.049235516569
    C            0.848432375509    -0.402752011537    -0.749260313080
    C           -2.445353504420     1.342437668166     1.293074798779
    C           -0.503399531341    -0.033374917934     1.308579257810
    N            2.963445069602    -1.486361136911    -2.127385328284
    O           -3.432056733673     1.970929854137     1.989998437040
    F            0.361928395771    -0.792534724596     2.002127415383
    H           -1.054674077966     1.197523230322    -1.774716419592
    H           -2.932882746223     2.241050029788    -0.586116105681
    H            1.128578207036     1.267068951507    -2.088866972371
    H            0.931244202881    -2.247371841539     0.373173050771
    H           -1.681085728977     0.361147444069     3.043180762105
    H            3.024096410123     0.215038846944    -3.301077639817
    H            2.847262086737    -3.156642853999    -0.915444758549
    H            3.745444323268    -1.884689145723    -2.631709612708
    H           -4.293445232153     1.601797783044     1.768346563361

*** Psi4 exiting successfully. Buy a developer a beer!
