                              Psi4 1.0.0 Driver

  ==> Input File <==

--------------------------------------------------------------------------

memory 1000 mb

molecule butane {
  symmetry C1
  0 1
  H      1.604   0.760   -8.260
  H      1.745   2.388   -8.880
  H      2.043   1.024   -9.930
  C      2.142   1.395   -8.932
  H      4.169   2.051   -9.210
  H      3.731   1.788   -7.539
  C      3.631   1.416   -8.537
  H      4.720   -0.237   -7.703
  H      3.404   -0.710   -8.749
  C      4.203   -0.012   -8.612
  H      5.578   -1.104   -9.849
  H      5.980   0.585   -9.661
  H      4.664   0.112   -10.707
  C      5.180   -0.113   -9.797
  units Angstrom
}

dih_string = "4 7 10 14 110"
set optking fixed_dihedral = $dih_string

optimize('MP2/6-31G(d)')
--------------------------------------------------------------------------

    Molecular point group: c1
  Charge       = 0
  Multiplicity = 1
  Basis Set: 6-31G(D)
  Basis Set:
  @DF-RHF Final Energy:  -157.28825365536335
    Total Energy =                       -157.2882536553633770
  Basis Set:
    Molecular point group: c1
  Basis Set: 6-31G(D)
  Basis Set:
  Basis Set:
	 Reference Energy          =    -157.2882536553633486 [Eh]
	 Singles Energy            =      -0.0000000000000000 [Eh]
	 Same-Spin Energy          =      -0.1244417755716691 [Eh]
	 Opposite-Spin Energy      =      -0.4204214826832537 [Eh]
	 Correlation Energy        =      -0.5448632582549229 [Eh]
	 Total Energy              =    -157.8331169136182837 [Eh]
	 SCS Total Energy          =    -157.8342400264404830 [Eh]
  Basis Set: 6-31G(D)
  Basis Set:
  @DF-RHF Final Energy:  -157.29122071125434
    Total Energy =                       -157.2912207112540273
  Basis Set:
  Basis Set: 6-31G(D)
  Basis Set:
  @DF-RHF Final Energy:  -157.29207791616534
    Total Energy =                       -157.2920779161654536
  @DF-RHF Final Energy:  -157.29236074562749
    Total Energy =                       -157.2923607456274624
  @DF-RHF Final Energy:  -157.29237603540804
    Total Energy =                       -157.2923760354080969
	 Singles Energy            =      -0.0000000000000000 [Eh]
	 Same-Spin Energy          =      -0.1242972701726211 [Eh]
	 Opposite-Spin Energy      =      -0.4224292151035799 [Eh]
	 Correlation Energy        =      -0.5467264852762010 [Eh]
	 Total Energy              =    -157.8391025206842357 [Eh]
	 SCS Total Energy          =    -157.8407235169232194 [Eh]
  Charge       = 0
  Multiplicity = 1
  Basis Set: 6-31G(D)
  Basis Set:

    Orbital Energies (a.u.)
    -----------------------

    Doubly Occupied:

       1A    -11.215480     2A    -11.214920     3A    -11.210550
       4A    -11.210543     5A     -1.067969     6A     -0.978357
       7A     -0.861582     8A     -0.784542     9A     -0.626537
      10A     -0.604203    11A     -0.578419    12A     -0.546559
      13A     -0.511757    14A     -0.507202    15A     -0.466750
      16A     -0.453931    17A     -0.453044

  @DF-RHF Final Energy:  -157.29238314457024

   => Energetics <=

    Nuclear Repulsion Energy =            131.3335834538341373
    One-Electron Energy =                -470.6672421586231394
    Two-Electron Energy =                 182.0412755602185655
    DFT Exchange-Correlation Energy =       0.0000000000000000
    Empirical Dispersion Energy =           0.0000000000000000
    PCM Polarization Energy =               0.0000000000000000
    EFP Energy =                            0.0000000000000000
    Total Energy =                       -157.2923831445704366
  Basis Set:
    Molecular point group: c1
  Basis Set: 6-31G(D)
  Basis Set:
  Basis Set:
	 Reference Energy          =    -157.2923831445702376 [Eh]
	 Singles Energy            =      -0.0000000000000000 [Eh]
	 Same-Spin Energy          =      -0.1242965804211532 [Eh]
	 Opposite-Spin Energy      =      -0.4224220667039275 [Eh]
	 Correlation Energy        =      -0.5467186471250807 [Eh]
	 Total Energy              =    -157.8391017916953274 [Eh]

	 ================> DF-SCS-MP2 Energies <==================
	-----------------------------------------------------------
	 SCS Same-Spin Scale       =       0.3333333333333333 [-]
	 SCS Opposite-Spin Scale   =       1.2000000000000000 [-]
	 SCS Same-Spin Energy      =      -0.0414321934737177 [Eh]
	 SCS Opposite-Spin Energy  =      -0.5069064800447129 [Eh]
	 SCS Correlation Energy    =      -0.5483386735184307 [Eh]
	 SCS Total Energy          =    -157.8407218180886673 [Eh]
	-----------------------------------------------------------

  -Total Gradient:
     Atom            X                  Y                   Z
    ------   -----------------  -----------------  -----------------
       1       -0.000016284751    -0.000004128991    -0.000006791081
       2       -0.000008583152     0.000004808048     0.000003191995
       3        0.000017666219     0.000004624170     0.000004319725
       4       -0.000357530023    -0.000303195327     0.001599186356
       5        0.000003700054     0.000015047749     0.000001692852
       6       -0.000011561967     0.000002078100    -0.000025498042
       7        0.000978679540     0.000655809689    -0.001801102239
       8       -0.000005105647    -0.000006252090    -0.000026843623
       9       -0.000001391904    -0.000014441610     0.000005727880
      10       -0.001813731630    -0.000854846582    -0.000781885851
      11        0.000008919521    -0.000005146873    -0.000001508929
      12        0.000008513779     0.000001917909    -0.000015005462
      13       -0.000011523653    -0.000003516224     0.000015034474
      14        0.001208233612     0.000507242031     0.001029481946

  **** Optimization is complete! (in 6 steps) ****
    Final optimized geometry and variables:
    Molecular point group: c1

    Geometry (in Angstrom), charge = 0, multiplicity = 1:

    H           -2.241314620870     0.073756598754     0.752649031857
    H           -2.109621009831     1.721053511697     0.121294451280
    H           -1.817476491106     0.338662785040    -0.942289026452
    C           -1.675155478305     0.718315644594     0.074316633938
    H            0.340777368892     1.431085593435    -0.197694523982
    H           -0.093232528611     1.116460474595     1.467568606234
    C           -0.196070565401     0.727280678968     0.448824725941
    H            0.980194321258    -0.905188422600     1.276240746081
    H           -0.327585721228    -1.427943802825     0.238505832281
    C            0.453089799774    -0.666059463587     0.346265272686
    H            1.860342948336    -1.780432254987    -0.892418488006
    H            2.260999080787    -0.069073508162    -0.691753775603
    H            0.941972697478    -0.547201843585    -1.766089988948
    C            1.435348547925    -0.775436618850    -0.816160957155

*** Psi4 exiting successfully. Buy a developer a beer!
