                               Psi4 1.1 release

  ==> Input File <==

--------------------------------------------------------------------------

memory 5000 mb

molecule butane {
  symmetry C1
  0 1
  H      2.056   1.366   -9.998
  H      1.674   0.528   -8.513
  H      1.662   2.274   -8.559
  C      2.142   1.395   -8.932
  H      4.169   2.051   -9.210
  H      3.731   1.788   -7.539
  C      3.631   1.416   -8.537
  H      3.665   -0.647   -7.940
  H      4.104   -0.384   -9.610
  C      4.203   -0.012   -8.612
  H      6.088   -0.983   -8.270
  H      5.791   0.381   -7.220
  H      6.230   0.644   -8.890
  C      5.691   0.009   -8.218
  units Angstrom
}

dih_string = "10 7 4 3 160"
set optking fixed_dihedral = $dih_string

optimize('MP2/aug-cc-pvtz')
--------------------------------------------------------------------------

    Molecular point group: c1
  Charge       = 0
  Multiplicity = 1
  Basis Set: AUG-CC-PVTZ
    Blend: AUG-CC-PVTZ
  Basis Set: (AUG-CC-PVTZ AUX)
    Blend: AUG-CC-PVTZ-JKFIT
  @DF-RHF Final Energy:  -157.35141478461247
    Total Energy =                       -157.3514147846124729
  Basis Set: (AUG-CC-PVTZ AUX)
    Blend: AUG-CC-PVTZ-RI
    Molecular point group: c1
  Basis Set: AUG-CC-PVTZ
    Blend: AUG-CC-PVTZ
  Basis Set: (AUG-CC-PVTZ AUX)
    Blend: AUG-CC-PVTZ-JKFIT
  Basis Set: (AUG-CC-PVTZ AUX)
    Blend: AUG-CC-PVTZ-JKFIT
	 Reference Energy          =    -157.3514147846124729 [Eh]
	 Singles Energy            =      -0.0000000000000000 [Eh]
	 Same-Spin Energy          =      -0.1654012039275888 [Eh]
	 Opposite-Spin Energy      =      -0.6388810382831211 [Eh]
	 Correlation Energy        =      -0.8042822422107100 [Eh]
	 Total Energy              =    -158.1556970268231908 [Eh]
	 SCS Total Energy          =    -158.1732057651947514 [Eh]
  @DF-RHF Final Energy:  -157.35410727128627
    Total Energy =                       -157.3541072712862672
  @DF-RHF Final Energy:  -157.35493684472385
    Total Energy =                       -157.3549368447238521
  @DF-RHF Final Energy:  -157.35522440071716
    Total Energy =                       -157.3552244007171623
  @DF-RHF Final Energy:  -157.35524474673736
    Total Energy =                       -157.3552447467373554
  Charge       = 0
  Multiplicity = 1
  Basis Set: AUG-CC-PVTZ
    Blend: AUG-CC-PVTZ
  Basis Set: (AUG-CC-PVTZ AUX)
    Blend: AUG-CC-PVTZ-JKFIT

    Orbital Energies (a.u.)
    -----------------------

    Doubly Occupied:

       1A    -11.211452     2A    -11.210796     3A    -11.206000
       4A    -11.205911     5A     -1.074111     6A     -0.981861
       7A     -0.861161     8A     -0.788190     9A     -0.640781
      10A     -0.585063    11A     -0.577235    12A     -0.568872
      13A     -0.513398    14A     -0.495213    15A     -0.470116
      16A     -0.460650    17A     -0.456136

  @DF-RHF Final Energy:  -157.35524929546199

   => Energetics <=

    Nuclear Repulsion Energy =            131.5037899245804454
    One-Electron Energy =                -471.1041853706077518
    Two-Electron Energy =                 182.2451461505652901
    DFT Exchange-Correlation Energy =       0.0000000000000000
    Empirical Dispersion Energy =           0.0000000000000000
    PCM Polarization Energy =               0.0000000000000000
    EFP Energy =                            0.0000000000000000
    Total Energy =                       -157.3552492954619879
  Basis Set: (AUG-CC-PVTZ AUX)
    Blend: AUG-CC-PVTZ-RI
    Molecular point group: c1
  Basis Set: AUG-CC-PVTZ
    Blend: AUG-CC-PVTZ
  Basis Set: (AUG-CC-PVTZ AUX)
    Blend: AUG-CC-PVTZ-JKFIT
  Basis Set: (AUG-CC-PVTZ AUX)
    Blend: AUG-CC-PVTZ-JKFIT
	 Reference Energy          =    -157.3552492954619879 [Eh]
	 Singles Energy            =      -0.0000000000000000 [Eh]
	 Same-Spin Energy          =      -0.1654641787430230 [Eh]
	 Opposite-Spin Energy      =      -0.6393291858139375 [Eh]
	 Correlation Energy        =      -0.8047933645569605 [Eh]
	 Total Energy              =    -158.1600426600189451 [Eh]

	 ================> DF-SCS-MP2 Energies <==================
	-----------------------------------------------------------
	 SCS Same-Spin Scale       =       0.3333333333333333 [-]
	 SCS Opposite-Spin Scale   =       1.2000000000000000 [-]
	 SCS Same-Spin Energy      =      -0.0551547262476743 [Eh]
	 SCS Opposite-Spin Energy  =      -0.7671950229767249 [Eh]
	 SCS Correlation Energy    =      -0.8223497492243993 [Eh]
	 SCS Total Energy          =    -158.1775990446863887 [Eh]
	-----------------------------------------------------------

  -Total Gradient:
     Atom            X                  Y                   Z
    ------   -----------------  -----------------  -----------------
       1        0.000006186527     0.000008789078     0.000002645215
       2        0.000000482260     0.000020185884    -0.000017637392
       3       -0.000662658013    -0.001328048373     0.002315137913
       4        0.000633723135     0.001526026543    -0.002169168022
       5        0.000005575645    -0.000005389593     0.000001402770
       6       -0.000000129591     0.000006012766    -0.000028248318
       7        0.000533582396     0.000099566266    -0.001988569659
       8        0.000014115653     0.000000251278    -0.000017363387
       9       -0.000014102799     0.000000267132     0.000004596869
      10       -0.000506185190    -0.000319754393     0.001870923706
      11        0.000007279680     0.000006149197     0.000003928267
      12        0.000013462547    -0.000001839715    -0.000010273448
      13       -0.000008028957    -0.000003661810     0.000001277433
      14       -0.000023303294    -0.000008554263     0.000031348049

  **** Optimization is complete! (in 6 steps) ****
    Final optimized geometry and variables:
    Molecular point group: c1

    Geometry (in Angstrom), charge = 0, multiplicity = 1:

    H           -1.882763561884     0.658414397547    -1.446595865191
    H           -2.287837983991    -0.150049824491     0.058873887004
    H           -2.280604889310     1.597622601140    -0.002810243529
    C           -1.770342660505     0.709017412814    -0.366298154505
    H            0.267841105157     1.370526537495    -0.592039236377
    H           -0.205766010087     1.065748511396     1.061113688334
    C           -0.305874034844     0.692357215966     0.040796949695
    H           -0.249875775716    -1.350456773752     0.654013331186
    H            0.168998315757    -1.102797262499    -1.025159637445
    C            0.302547193830    -0.695695867849    -0.021251234181
    H            2.191348126753    -1.708374382677     0.309867972511
    H            1.922873097443    -0.314099234191     1.349826819646
    H            2.345368328631    -0.080219340918    -0.340396257152
    C            1.774544566368    -0.704529439704     0.344510493659

*** Psi4 exiting successfully. Buy a developer a beer!
