                               Psi4 1.1 release

  ==> Input File <==

--------------------------------------------------------------------------

memory 5 Gb

molecule phepyrOH_neutral {
  symmetry C1
  0 1
  C      1.885   -1.036   -0.112
  C      2.878   -1.652   2.002
  C      0.807   -0.463   0.561
  C      1.800   -1.079   2.676
  C      3.862   -2.773   -1.356
  C      5.298   -2.250   0.501
  C      4.965   -3.329   -1.983
  C      6.337   -2.829   -0.209
  C      2.921   -1.631   0.608
  C      4.040   -2.225   -0.090
  C      0.764   -0.484   1.955
  N      6.202   -3.372   -1.440
  O      -0.288   0.076   2.612
  H      1.904   -1.012   -1.199
  H      3.678   -2.112   2.578
  H      0.003   -0.001   -0.006
  H      1.772   -1.098   3.762
  H      2.895   -2.772   -1.850
  H      5.475   -1.833   1.487
  H      4.879   -3.768   -2.972
  H      7.337   -2.875   0.208
  H      -0.652   0.814   2.097
  units Angstrom
}

dih_string = "3 11 13 22 330"
set optking fixed_dihedral = $dih_string

optimize('MP2/aug-cc-PVTZ')
--------------------------------------------------------------------------

    Molecular point group: c1
  Charge       = 0
  Multiplicity = 1
  Basis Set: AUG-CC-PVTZ
    Blend: AUG-CC-PVTZ
  Basis Set: (AUG-CC-PVTZ AUX)
    Blend: AUG-CC-PVTZ-JKFIT
  @DF-RHF Final Energy:  -551.28441398353789
    Total Energy =                       -551.2844139835378883
  Basis Set: (AUG-CC-PVTZ AUX)
    Blend: AUG-CC-PVTZ-RI
    Molecular point group: c1
  Basis Set: AUG-CC-PVTZ
    Blend: AUG-CC-PVTZ
  Basis Set: (AUG-CC-PVTZ AUX)
    Blend: AUG-CC-PVTZ-JKFIT
  Basis Set: (AUG-CC-PVTZ AUX)
    Blend: AUG-CC-PVTZ-JKFIT
	 Reference Energy          =    -551.2844139835378883 [Eh]
	 Singles Energy            =      -0.0000000000000005 [Eh]
	 Same-Spin Energy          =      -0.6051225392810198 [Eh]
	 Opposite-Spin Energy      =      -1.8308297556509978 [Eh]
	 Correlation Energy        =      -2.4359522949320183 [Eh]
	 Total Energy              =    -553.7203662784698963 [Eh]
	 SCS Total Energy          =    -553.6831172034127349 [Eh]
  @DF-RHF Final Energy:  -551.29041577823943
    Total Energy =                       -551.2904157782394350
  @DF-RHF Final Energy:  -551.29182802892251
    Total Energy =                       -551.2918280289225095
  @DF-RHF Final Energy:  -551.29188758582859
    Total Energy =                       -551.2918875858285901
  @DF-RHF Final Energy:  -551.29198740199240
    Total Energy =                       -551.2919874019924009
  @DF-RHF Final Energy:  -551.29205824656322
    Total Energy =                       -551.2920582465632151
  Charge       = 0
  Multiplicity = 1
  Basis Set: AUG-CC-PVTZ
    Blend: AUG-CC-PVTZ
  Basis Set: (AUG-CC-PVTZ AUX)
    Blend: AUG-CC-PVTZ-JKFIT

    Orbital Energies (a.u.)
    -----------------------

    Doubly Occupied:

       1A    -20.598890     2A    -15.560067     3A    -11.311569
       4A    -11.271362     5A    -11.271313     6A    -11.265002
       7A    -11.252650     8A    -11.250708     9A    -11.247252
      10A    -11.243802    11A    -11.238168    12A    -11.235414
      13A    -11.235294    14A     -1.415290    15A     -1.257605
      16A     -1.175619    17A     -1.105581    18A     -1.039122
      19A     -1.030206    20A     -1.013074    21A     -0.881433
      22A     -0.872260    23A     -0.843226    24A     -0.812726
      25A     -0.748618    26A     -0.725780    27A     -0.684501
      28A     -0.662076    29A     -0.655815    30A     -0.636040
      31A     -0.623947    32A     -0.606333    33A     -0.601267
      34A     -0.592916    35A     -0.570599    36A     -0.543444
      37A     -0.533923    38A     -0.524156    39A     -0.498815
      40A     -0.496544    41A     -0.416954    42A     -0.397372
      43A     -0.356102    44A     -0.347862    45A     -0.312106

  @DF-RHF Final Energy:  -551.29207111052597

   => Energetics <=

    Nuclear Repulsion Energy =            697.7362638628318336
    One-Electron Energy =               -2132.1310699338000632
    Two-Electron Energy =                 883.1027349604421488
    DFT Exchange-Correlation Energy =       0.0000000000000000
    Empirical Dispersion Energy =           0.0000000000000000
    PCM Polarization Energy =               0.0000000000000000
    EFP Energy =                            0.0000000000000000
    Total Energy =                       -551.2920711105259670
  Basis Set: (AUG-CC-PVTZ AUX)
    Blend: AUG-CC-PVTZ-RI
    Molecular point group: c1
  Basis Set: AUG-CC-PVTZ
    Blend: AUG-CC-PVTZ
  Basis Set: (AUG-CC-PVTZ AUX)
    Blend: AUG-CC-PVTZ-JKFIT
  Basis Set: (AUG-CC-PVTZ AUX)
    Blend: AUG-CC-PVTZ-JKFIT
	 Reference Energy          =    -551.2920711105259670 [Eh]
	 Singles Energy            =      -0.0000000000000005 [Eh]
	 Same-Spin Energy          =      -0.6040079279785533 [Eh]
	 Opposite-Spin Energy      =      -1.8282722497408708 [Eh]
	 Correlation Energy        =      -2.4322801777194245 [Eh]
	 Total Energy              =    -553.7243512882454297 [Eh]

	 ================> DF-SCS-MP2 Energies <==================
	-----------------------------------------------------------
	 SCS Same-Spin Scale       =       0.3333333333333333 [-]
	 SCS Opposite-Spin Scale   =       1.2000000000000000 [-]
	 SCS Same-Spin Energy      =      -0.2013359759928511 [Eh]
	 SCS Opposite-Spin Energy  =      -2.1939266996890447 [Eh]
	 SCS Correlation Energy    =      -2.3952626756818964 [Eh]
	 SCS Total Energy          =    -553.6873337862078870 [Eh]
	-----------------------------------------------------------

  -Total Gradient:
     Atom            X                  Y                   Z
    ------   -----------------  -----------------  -----------------
       1       -0.000007960262     0.000009041630     0.000001431883
       2        0.000004121952     0.000030519553     0.000030900000
       3       -0.000999883502    -0.001892942306    -0.000108396574
       4        0.000026953181    -0.000011136838    -0.000008962320
       5        0.000019166640     0.000029435814    -0.000024101718
       6        0.000001947613    -0.000036829508     0.000016096061
       7       -0.000027897121    -0.000034000444     0.000008028218
       8        0.000010051206     0.000042920130    -0.000001191515
       9        0.000036779915    -0.000046062267    -0.000039693764
      10       -0.000059338713     0.000029830594     0.000025337862
      11        0.001871805493     0.003349471819     0.000500074471
      12        0.000015445882    -0.000006209683    -0.000010257037
      13       -0.002606094034    -0.003183699206    -0.001691016805
      14       -0.000000702811     0.000002802916     0.000005876144
      15       -0.000001473626    -0.000002118090    -0.000003286002
      16        0.000005162737    -0.000001163440    -0.000007492756
      17       -0.000006279929    -0.000003795839     0.000002756070
      18        0.000009914950    -0.000016910281    -0.000002522032
      19        0.000012487712     0.000003588040    -0.000006302858
      20       -0.000006914753     0.000006578552    -0.000008486551
      21       -0.000000029732    -0.000006961312     0.000014923741
      22        0.001702737195     0.001737640168     0.001306285489

  **** Optimization is complete! (in 7 steps) ****
    Final optimized geometry and variables:
    Molecular point group: c1

    Geometry (in Angstrom), charge = 0, multiplicity = 1:

    C           -1.239694049214     0.769714954910    -0.563916181875
    C           -0.319474901430     0.063603906640     1.527921330523
    C           -2.313900581801     1.340802025808     0.098891718229
    C           -1.383511285375     0.641039393344     2.198421403884
    C            0.751727426648    -1.096887304328    -1.805439076524
    C            2.187955199877    -0.477319339252    -0.026255312318
    C            1.852229283087    -1.656449310692    -2.434217795528
    C            3.229151297012    -1.063872242135    -0.727396842391
    C           -0.225436464011     0.121063978714     0.137558401987
    C            0.904247433656    -0.484189720025    -0.564768478078
    C           -2.380139055630     1.290888106718     1.484921368372
    N            3.083456074906    -1.650442551310    -1.917862824792
    O           -3.434968709377     1.796473729285     2.190651496704
    H           -1.181831782556     0.845673935739    -1.639520102946
    H            0.438006963795    -0.460085630106     2.091856647391
    H           -3.097333042228     1.832364772976    -0.460299886239
    H           -1.459644992834     0.591094913993     3.273412855483
    H           -0.221302141030    -1.161781576366    -2.268531790283
    H            2.382078065656     0.003336216704     0.920702330966
    H            1.739251282710    -2.139020442690    -3.395069911557
    H            4.229506304532    -1.056733928990    -0.317332418413
    H           -3.814699434628     2.533509680146     1.703541220013

*** Psi4 exiting successfully. Buy a developer a beer!
