                               Psi4 1.1 release

  ==> Input File <==

--------------------------------------------------------------------------

memory 5 Gb

molecule phepyrOH_neutral {
  symmetry C1
  0 1
  C      1.885   -1.036   -0.112
  C      2.878   -1.652   2.002
  C      0.807   -0.463   0.561
  C      1.800   -1.079   2.676
  C      3.862   -2.773   -1.356
  C      5.298   -2.250   0.501
  C      4.965   -3.329   -1.983
  C      6.337   -2.829   -0.209
  C      2.921   -1.631   0.608
  C      4.040   -2.225   -0.090
  C      0.764   -0.484   1.955
  N      6.202   -3.372   -1.440
  O      -0.288   0.076   2.612
  H      1.904   -1.012   -1.199
  H      3.678   -2.112   2.578
  H      0.003   -0.001   -0.006
  H      1.772   -1.098   3.762
  H      2.895   -2.772   -1.850
  H      5.475   -1.833   1.487
  H      4.879   -3.768   -2.972
  H      7.337   -2.875   0.208
  H      0.027   0.613   3.356
  units Angstrom
}

dih_string = "3 11 13 22 225"
set optking fixed_dihedral = $dih_string

optimize('MP2/aug-cc-PVTZ')
--------------------------------------------------------------------------

    Molecular point group: c1
  Charge       = 0
  Multiplicity = 1
  Basis Set: AUG-CC-PVTZ
    Blend: AUG-CC-PVTZ
  Basis Set: (AUG-CC-PVTZ AUX)
    Blend: AUG-CC-PVTZ-JKFIT
  @DF-RHF Final Energy:  -551.28347301606459
    Total Energy =                       -551.2834730160645904
  Basis Set: (AUG-CC-PVTZ AUX)
    Blend: AUG-CC-PVTZ-RI
    Molecular point group: c1
  Basis Set: AUG-CC-PVTZ
    Blend: AUG-CC-PVTZ
  Basis Set: (AUG-CC-PVTZ AUX)
    Blend: AUG-CC-PVTZ-JKFIT
  Basis Set: (AUG-CC-PVTZ AUX)
    Blend: AUG-CC-PVTZ-JKFIT
	 Reference Energy          =    -551.2834730160645904 [Eh]
	 Singles Energy            =      -0.0000000000000001 [Eh]
	 Same-Spin Energy          =      -0.6049823395809767 [Eh]
	 Opposite-Spin Energy      =      -1.8306060522174983 [Eh]
	 Correlation Energy        =      -2.4355883917984751 [Eh]
	 Total Energy              =    -553.7190614078630233 [Eh]
	 SCS Total Energy          =    -553.6818610585859233 [Eh]
  @DF-RHF Final Energy:  -551.28938551165606
    Total Energy =                       -551.2893855116560644
  @DF-RHF Final Energy:  -551.29068760562404
    Total Energy =                       -551.2906876056240435
  @DF-RHF Final Energy:  -551.29072329899873
    Total Energy =                       -551.2907232989987278
  @DF-RHF Final Energy:  -551.29084050192012
    Total Energy =                       -551.2908405019201155
  @DF-RHF Final Energy:  -551.29088951460608
    Total Energy =                       -551.2908895146060786
  @DF-RHF Final Energy:  -551.29088251747419
    Total Energy =                       -551.2908825174741878
  Charge       = 0
  Multiplicity = 1
  Basis Set: AUG-CC-PVTZ
    Blend: AUG-CC-PVTZ
  Basis Set: (AUG-CC-PVTZ AUX)
    Blend: AUG-CC-PVTZ-JKFIT

    Orbital Energies (a.u.)
    -----------------------

    Doubly Occupied:

       1A    -20.594511     2A    -15.560759     3A    -11.309118
       4A    -11.271958     5A    -11.271832     6A    -11.265520
       7A    -11.252141     8A    -11.250647     9A    -11.248793
      10A    -11.243595    11A    -11.239241    12A    -11.236204
      13A    -11.235956    14A     -1.410122    15A     -1.258263
      16A     -1.175864    17A     -1.105952    18A     -1.039273
      19A     -1.030474    20A     -1.013011    21A     -0.880656
      22A     -0.872289    23A     -0.842301    24A     -0.812649
      25A     -0.747577    26A     -0.725438    27A     -0.683917
      28A     -0.662436    29A     -0.654166    30A     -0.637487
      31A     -0.632580    32A     -0.606549    33A     -0.599462
      34A     -0.593799    35A     -0.555678    36A     -0.546354
      37A     -0.533638    38A     -0.518830    39A     -0.509097
      40A     -0.488534    41A     -0.417543    42A     -0.398807
      43A     -0.355744    44A     -0.348404    45A     -0.315211

  @DF-RHF Final Energy:  -551.29089144571458

   => Energetics <=

    Nuclear Repulsion Energy =            697.6051642166734155
    One-Electron Energy =               -2131.8873549357313095
    Two-Electron Energy =                 882.9912992733432020
    DFT Exchange-Correlation Energy =       0.0000000000000000
    Empirical Dispersion Energy =           0.0000000000000000
    PCM Polarization Energy =               0.0000000000000000
    EFP Energy =                            0.0000000000000000
    Total Energy =                       -551.2908914457145784
  Basis Set: (AUG-CC-PVTZ AUX)
    Blend: AUG-CC-PVTZ-RI
    Molecular point group: c1
  Basis Set: AUG-CC-PVTZ
    Blend: AUG-CC-PVTZ
  Basis Set: (AUG-CC-PVTZ AUX)
    Blend: AUG-CC-PVTZ-JKFIT
  Basis Set: (AUG-CC-PVTZ AUX)
    Blend: AUG-CC-PVTZ-JKFIT
	 Reference Energy          =    -551.2908914457145784 [Eh]
	 Singles Energy            =      -0.0000000000000002 [Eh]
	 Same-Spin Energy          =      -0.6038465110451144 [Eh]
	 Opposite-Spin Energy      =      -1.8280822181884162 [Eh]
	 Correlation Energy        =      -2.4319287292335305 [Eh]
	 Total Energy              =    -553.7228201749480831 [Eh]

	 ================> DF-SCS-MP2 Energies <==================
	-----------------------------------------------------------
	 SCS Same-Spin Scale       =       0.3333333333333333 [-]
	 SCS Opposite-Spin Scale   =       1.2000000000000000 [-]
	 SCS Same-Spin Energy      =      -0.2012821703483715 [Eh]
	 SCS Opposite-Spin Energy  =      -2.1936986618260992 [Eh]
	 SCS Correlation Energy    =      -2.3949808321744706 [Eh]
	 SCS Total Energy          =    -553.6858722778890751 [Eh]
	-----------------------------------------------------------

  -Total Gradient:
     Atom            X                  Y                   Z
    ------   -----------------  -----------------  -----------------
       1       -0.000027915685     0.000008752170     0.000007804815
       2       -0.000012898762     0.000006747503     0.000011246406
       3        0.001161232871     0.002071656094     0.000158950625
       4        0.000001373212    -0.000004994794     0.000005335893
       5        0.000012581660     0.000009563119    -0.000013182428
       6        0.000007686921    -0.000022605424     0.000001780569
       7        0.000001124627    -0.000084597212     0.000043042266
       8        0.000023310148     0.000078572127    -0.000061222129
       9        0.000061517857    -0.000032052717    -0.000029935404
      10       -0.000066453240     0.000034362427     0.000041002648
      11       -0.001648559063    -0.002453121073    -0.000656305243
      12       -0.000005451689     0.000000916839     0.000005188064
      13        0.000195630373    -0.002200786401     0.002315727308
      14        0.000005980182    -0.000005713186     0.000015298240
      15       -0.000006694610     0.000006670205    -0.000013970185
      16        0.000006062718    -0.000007662715     0.000012643136
      17        0.000003480445     0.000003967784    -0.000015207594
      18        0.000014967251     0.000005741961     0.000004106244
      19       -0.000002665683    -0.000011277584    -0.000011788163
      20       -0.000001645797     0.000037813481    -0.000011771977
      21       -0.000015096375    -0.000030484124     0.000023854024
      22        0.000292432623     0.002588531518    -0.001832597110

  **** Optimization is complete! (in 8 steps) ****
    Final optimized geometry and variables:
    Molecular point group: c1

    Geometry (in Angstrom), charge = 0, multiplicity = 1:

    C           -1.243326978922     0.765765496088    -0.555540200974
    C           -0.307644290693     0.062432219719     1.532153274292
    C           -2.307927576031     1.347608240243     0.111685203725
    C           -1.380600030520     0.623739439997     2.205117652642
    C            0.744270561378    -1.098871220807    -1.804439604129
    C            2.190798764442    -0.472915808021    -0.035578007944
    C            1.842144138113    -1.656871621628    -2.439379074178
    C            3.228851672617    -1.057994650038    -0.742548720829
    C           -0.223748611284     0.118833531030     0.142006719504
    C            0.903741869065    -0.484206317978    -0.565727776231
    C           -2.382694554896     1.270325526896     1.494303642816
    N            3.076572868533    -1.646974299925    -1.930950300049
    O           -3.471130151383     1.828602776803     2.114478560132
    H           -1.182360315495     0.850585905959    -1.630355345763
    H            0.454175597925    -0.459177818443     2.092254682452
    H           -3.085665899430     1.868783125839    -0.424234456818
    H           -1.452694542660     0.546724173355     3.280085726641
    H           -0.231694441810    -1.166015769156    -2.260954321905
    H            2.389854041704     0.009965941500     0.909245699551
    H            1.724374899375    -2.140513953740    -3.399071516215
    H            4.231808804633    -1.048003740681    -0.339035426591
    H           -3.172682626373     2.331658700282     2.877116507436

*** Psi4 exiting successfully. Buy a developer a beer!
