                               Psi4 1.1 release

  ==> Input File <==

--------------------------------------------------------------------------

memory 5 Gb

molecule phepyrFOH_cation {
  symmetry C1
  1 1
  C      1.885   -1.036   -0.112
  C      0.807   -0.463   0.561
  C      4.830   -1.443   -0.930
  C      4.321   -3.578   0.063
  C      1.800   -1.079   2.676
  C      5.894   -2.040   -1.592
  C      5.398   -4.120   -0.624
  C      2.921   -1.631   0.608
  C      4.038   -2.225   -0.095
  C      0.764   -0.484   1.955
  C      2.878   -1.652   2.002
  N      6.144   -3.345   -1.422
  O      -0.289   0.076   2.612
  F      3.866   -2.220   2.709
  H      1.904   -1.012   -1.199
  H      0.002   -0.002   -0.006
  H      4.632   -0.385   -1.072
  H      3.719   -4.212   0.708
  H      1.772   -1.099   3.762
  H      6.561   -1.511   -2.259
  H      5.691   -5.159   -0.561
  H      6.930   -3.764   -1.918
  H      0.019   0.788   3.195
  units Angstrom
}

dih_string = "2 10 13 23 240"
set optking fixed_dihedral = $dih_string

optimize('MP2/aug-cc-PVTZ')
--------------------------------------------------------------------------

    Molecular point group: c1
  Charge       = 1
  Multiplicity = 1
  Basis Set: AUG-CC-PVTZ
    Blend: AUG-CC-PVTZ
  Basis Set: (AUG-CC-PVTZ AUX)
    Blend: AUG-CC-PVTZ-JKFIT
  @DF-RHF Final Energy:  -650.55566163843469
    Total Energy =                       -650.5556616384346853
  Basis Set: (AUG-CC-PVTZ AUX)
    Blend: AUG-CC-PVTZ-RI
    Molecular point group: c1
  Basis Set: AUG-CC-PVTZ
    Blend: AUG-CC-PVTZ
  Basis Set: (AUG-CC-PVTZ AUX)
    Blend: AUG-CC-PVTZ-JKFIT
  Basis Set: (AUG-CC-PVTZ AUX)
    Blend: AUG-CC-PVTZ-JKFIT
	 Reference Energy          =    -650.5556616384346853 [Eh]
	 Singles Energy            =      -0.0000000000000013 [Eh]
	 Same-Spin Energy          =      -0.6687777016728526 [Eh]
	 Opposite-Spin Energy      =      -2.0134348719229496 [Eh]
	 Correlation Energy        =      -2.6822125735958036 [Eh]
	 Total Energy              =    -653.2378742120305333 [Eh]
	 SCS Total Energy          =    -653.1947093852998023 [Eh]
  @DF-RHF Final Energy:  -650.56058423835066
    Total Energy =                       -650.5605842383506570
  @DF-RHF Final Energy:  -650.56169030698743
    Total Energy =                       -650.5616903069874297
  @DF-RHF Final Energy:  -650.56208383487501
    Total Energy =                       -650.5620838348750112
  @DF-RHF Final Energy:  -650.56235092321367
    Total Energy =                       -650.5623509232136712
  @DF-RHF Final Energy:  -650.56271442412242
    Total Energy =                       -650.5627144241223050
  @DF-RHF Final Energy:  -650.56309160050716
    Total Energy =                       -650.5630916005072777
  @DF-RHF Final Energy:  -650.56343532235508
    Total Energy =                       -650.5634353223551898
  @DF-RHF Final Energy:  -650.56370765881570
    Total Energy =                       -650.5637076588157015
  @DF-RHF Final Energy:  -650.56389733018682
    Total Energy =                       -650.5638973301868191
  @DF-RHF Final Energy:  -650.56400038926256
    Total Energy =                       -650.5640003892626737
  @DF-RHF Final Energy:  -650.56401879917553
    Total Energy =                       -650.5640187991755283
  @DF-RHF Final Energy:  -650.56399139832388
    Total Energy =                       -650.5639913983238785
  @DF-RHF Final Energy:  -650.56403056716135
    Total Energy =                       -650.5640305671613532
  @DF-RHF Final Energy:  -650.56403186880789
    Total Energy =                       -650.5640318688078878
  @DF-RHF Final Energy:  -650.56403262997196
    Total Energy =                       -650.5640326299719618
  @DF-RHF Final Energy:  -650.56381414258351
    Total Energy =                       -650.5638141425836238
  @DF-RHF Final Energy:  -650.56403645596754
    Total Energy =                       -650.5640364559674254
  @DF-RHF Final Energy:  -650.56452489317053
    Total Energy =                       -650.5645248931705282
  @DF-RHF Final Energy:  -650.56359969037419
    Total Energy =                       -650.5635996903743035
  @DF-RHF Final Energy:  -650.56395752417802
    Total Energy =                       -650.5639575241780221
  @DF-RHF Final Energy:  -650.56404637697256
    Total Energy =                       -650.5640463769725557
  @DF-RHF Final Energy:  -650.56400469005519
    Total Energy =                       -650.5640046900552989
  @DF-RHF Final Energy:  -650.56403594976109
    Total Energy =                       -650.5640359497610916
  @DF-RHF Final Energy:  -650.56400662527471
    Total Energy =                       -650.5640066252747147
  Charge       = 1
  Multiplicity = 1
  Basis Set: AUG-CC-PVTZ
    Blend: AUG-CC-PVTZ
  Basis Set: (AUG-CC-PVTZ AUX)
    Blend: AUG-CC-PVTZ-JKFIT

    Orbital Energies (a.u.)
    -----------------------

    Doubly Occupied:

       1A    -26.445432     2A    -20.700365     3A    -15.833439
       4A    -11.483321     5A    -11.481443     6A    -11.472177
       7A    -11.456215     8A    -11.440113     9A    -11.415055
      10A    -11.411742    11A    -11.387605    12A    -11.386078
      13A    -11.361584    14A    -11.355356    15A     -1.765483
      16A     -1.522305    17A     -1.511222    18A     -1.325344
      19A     -1.276432    20A     -1.240961    21A     -1.170403
      22A     -1.159940    23A     -1.067728    24A     -1.064569
      25A     -0.992192    26A     -0.973807    27A     -0.962424
      28A     -0.896300    29A     -0.872224    30A     -0.865845
      31A     -0.850245    32A     -0.833461    33A     -0.819099
      34A     -0.810658    35A     -0.793937    36A     -0.775700
      37A     -0.764097    38A     -0.752529    39A     -0.742533
      40A     -0.721407    41A     -0.706616    42A     -0.677456
      43A     -0.660714    44A     -0.644131    45A     -0.616233
      46A     -0.579357    47A     -0.540335    48A     -0.477413
      49A     -0.456124

  @DF-RHF Final Energy:  -650.56401545536301

   => Energetics <=

    Nuclear Repulsion Energy =            830.7649086979174626
    One-Electron Energy =               -2521.6195480237197444
    Two-Electron Energy =                1040.2906238704392763
    DFT Exchange-Correlation Energy =       0.0000000000000000
    Empirical Dispersion Energy =           0.0000000000000000
    PCM Polarization Energy =               0.0000000000000000
    EFP Energy =                            0.0000000000000000
    Total Energy =                       -650.5640154553630055
  Basis Set: (AUG-CC-PVTZ AUX)
    Blend: AUG-CC-PVTZ-RI
    Molecular point group: c1
  Basis Set: AUG-CC-PVTZ
    Blend: AUG-CC-PVTZ
  Basis Set: (AUG-CC-PVTZ AUX)
    Blend: AUG-CC-PVTZ-JKFIT
  Basis Set: (AUG-CC-PVTZ AUX)
    Blend: AUG-CC-PVTZ-JKFIT
	 Reference Energy          =    -650.5640154553630055 [Eh]
	 Singles Energy            =      -0.0000000000000002 [Eh]
	 Same-Spin Energy          =      -0.6685709991867760 [Eh]
	 Opposite-Spin Energy      =      -2.0120631276070862 [Eh]
	 Correlation Energy        =      -2.6806341267938620 [Eh]
	 Total Energy              =    -653.2446495821568533 [Eh]

	 ================> DF-SCS-MP2 Energies <==================
	-----------------------------------------------------------
	 SCS Same-Spin Scale       =       0.3333333333333333 [-]
	 SCS Opposite-Spin Scale   =       1.2000000000000000 [-]
	 SCS Same-Spin Energy      =      -0.2228569997289253 [Eh]
	 SCS Opposite-Spin Energy  =      -2.4144757531285035 [Eh]
	 SCS Correlation Energy    =      -2.6373327528574286 [Eh]
	 SCS Total Energy          =    -653.2013482082204519 [Eh]
	-----------------------------------------------------------

  -Total Gradient:
     Atom            X                  Y                   Z
    ------   -----------------  -----------------  -----------------
       1       -0.000073570898    -0.000043043612    -0.000024488254
       2        0.001719473361     0.002450905636     0.000619351071
       3        0.000032036845     0.000012771115    -0.000003791047
       4        0.000035366018     0.000015572418    -0.000038457131
       5        0.000020709694     0.000091764595     0.000044643233
       6        0.000007297011    -0.000011769390    -0.000018239243
       7        0.000028303413    -0.000020269975     0.000005114961
       8        0.000092381233     0.000082472633     0.000026285088
       9       -0.000039847958    -0.000068305604    -0.000044245465
      10       -0.002432200508    -0.002843013288    -0.001633215113
      11       -0.000077751283    -0.000129211609    -0.000010354034
      12       -0.000028350868     0.000029305769     0.000014854779
      13        0.000463682117    -0.002675737449     0.003639839063
      14        0.000020049725     0.000009634773     0.000063715219
      15       -0.000007577228     0.000008817507    -0.000001474994
      16       -0.000014124361     0.000024764092    -0.000017789882
      17        0.000015604907     0.000000274705    -0.000008901369
      18       -0.000014730743    -0.000029044679     0.000029797490
      19        0.000011877673    -0.000005097102     0.000007208480
      20        0.000009914721     0.000031267720    -0.000026024105
      21       -0.000013342910    -0.000013628333     0.000014386759
      22       -0.000002129186     0.000006365149     0.000000524595
      23        0.000246929227     0.003075204937    -0.002638740111

  **** Optimization is complete! (in 26 steps) ****
    Final optimized geometry and variables:
    Molecular point group: c1

    Geometry (in Angstrom), charge = 1, multiplicity = 1:

    C           -1.124002414381     1.054085820589    -0.744588456326
    C           -2.181773330851     1.675945141292    -0.116357347499
    C            1.485183531150     0.185762517778    -1.802394359892
    C            1.314115553707    -1.712727399849    -0.360556937746
    C           -1.553459600704     0.634728840536     1.962718017706
    C            2.518537181800    -0.427882074110    -2.465061552610
    C            2.349154017168    -2.299672782215    -1.046036639294
    C           -0.255352191445     0.204778519491    -0.048055391410
    C            0.848102524185    -0.443092797775    -0.725550904204
    C           -2.401844422556     1.464750534092     1.241130448735
    C           -0.508414899626     0.023465600129     1.310974968003
    N            2.920020045141    -1.646764490099    -2.070619296276
    O           -3.478388216161     2.052533145245     1.824771365781
    F            0.319480362098    -0.751440000622     2.032960127300
    H           -0.985836235483     1.199566062317    -1.805256805637
    H           -2.856747826245     2.315253461819    -0.661860842661
    H            1.194618745050     1.176359231073    -2.111301364733
    H            0.858697033585    -2.258645609796     0.446909328459
    H           -1.705451198475     0.458014501033     3.015446920310
    H            3.047206360056     0.018171505056    -3.290839249220
    H            2.737143399599    -3.277192388607    -0.813122369869
    H            3.685031467025    -2.089799754225    -2.563485009529
    H           -3.201662928795     2.640973059685     2.534894634947

*** Psi4 exiting successfully. Buy a developer a beer!
