                               Psi4 1.1 release

  ==> Input File <==

--------------------------------------------------------------------------

memory 5 Gb

molecule phepyrOH_zwitterion {
  symmetry C1
  0 1
  C      1.885   -1.036   -0.112
  C      2.878   -1.652   2.002
  C      0.807   -0.463   0.561
  C      1.800   -1.079   2.676
  C      4.441   -1.719   -1.323
  C      4.717   -3.305   0.469
  C      5.517   -2.310   -1.970
  C      5.785   -3.856   -0.223
  C      2.921   -1.631   0.608
  C      4.040   -2.226   -0.090
  C      0.764   -0.484   1.955
  N      6.150   -3.349   -1.409
  O      -0.227   0.042   2.574
  H      1.904   -1.011   -1.199
  H      3.678   -2.112   2.577
  H      0.011   -0.006   -0.025
  H      1.791   -1.108   3.764
  H      3.931   -0.878   -1.783
  H      4.425   -3.721   1.429
  H      5.897   -1.983   -2.928
  H      6.368   -4.694   0.134
  H      6.938   -3.769   -1.901
  units Angstrom
}

dih_string = "1 9 10 5 30"
set optking fixed_dihedral = $dih_string

optimize('MP2/aug-cc-PVTZ')
--------------------------------------------------------------------------

    Molecular point group: c1
  Charge       = 0
  Multiplicity = 1
  Basis Set: AUG-CC-PVTZ
    Blend: AUG-CC-PVTZ
  Basis Set: (AUG-CC-PVTZ AUX)
    Blend: AUG-CC-PVTZ-JKFIT
  @DF-RHF Final Energy:  -551.21487800572265
    Total Energy =                       -551.2148780057226531
  Basis Set: (AUG-CC-PVTZ AUX)
    Blend: AUG-CC-PVTZ-RI
    Molecular point group: c1
  Basis Set: AUG-CC-PVTZ
    Blend: AUG-CC-PVTZ
  Basis Set: (AUG-CC-PVTZ AUX)
    Blend: AUG-CC-PVTZ-JKFIT
  Basis Set: (AUG-CC-PVTZ AUX)
    Blend: AUG-CC-PVTZ-JKFIT
	 Reference Energy          =    -551.2148780057226531 [Eh]
	 Singles Energy            =      -0.0000000000000004 [Eh]
	 Same-Spin Energy          =      -0.6065191097178403 [Eh]
	 Opposite-Spin Energy      =      -1.8398675808637230 [Eh]
	 Correlation Energy        =      -2.4463866905815639 [Eh]
	 Total Energy              =    -553.6612646963042152 [Eh]
	 SCS Total Energy          =    -553.6248921393316778 [Eh]
  @DF-RHF Final Energy:  -551.22611604166002
    Total Energy =                       -551.2261160416600205
  @DF-RHF Final Energy:  -551.23484015636063
    Total Energy =                       -551.2348401563606330
  @DF-RHF Final Energy:  -551.24049768538509
    Total Energy =                       -551.2404976853850940
  @DF-RHF Final Energy:  -551.24309989716107
    Total Energy =                       -551.2430998971610734
  @DF-RHF Final Energy:  -551.24416927348705
    Total Energy =                       -551.2441692734870458
  @DF-RHF Final Energy:  -551.24477859269791
    Total Energy =                       -551.2447785926979122
  @DF-RHF Final Energy:  -551.24511574390260
    Total Energy =                       -551.2451157439026019
  @DF-RHF Final Energy:  -551.24509052560893
    Total Energy =                       -551.2450905256089300
  @DF-RHF Final Energy:  -551.24507128744403
    Total Energy =                       -551.2450712874440342
  @DF-RHF Final Energy:  -551.24497414178995
    Total Energy =                       -551.2449741417899531
  @DF-RHF Final Energy:  -551.24496323550375
    Total Energy =                       -551.2449632355037465
  @DF-RHF Final Energy:  -551.24497961920088
    Total Energy =                       -551.2449796192008762
  Charge       = 0
  Multiplicity = 1
  Basis Set: AUG-CC-PVTZ
    Blend: AUG-CC-PVTZ
  Basis Set: (AUG-CC-PVTZ AUX)
    Blend: AUG-CC-PVTZ-JKFIT

    Orbital Energies (a.u.)
    -----------------------

    Doubly Occupied:

       1A    -20.477105     2A    -15.663573     3A    -11.332082
       4A    -11.331229     5A    -11.295200     6A    -11.278868
       7A    -11.264146     8A    -11.263408     9A    -11.236748
      10A    -11.235798    11A    -11.222500    12A    -11.202362
      13A    -11.201078    14A     -1.346546    15A     -1.311493
      16A     -1.167221    17A     -1.106752    18A     -1.090785
      19A     -1.011361    20A     -0.996253    21A     -0.907928
      22A     -0.894951    23A     -0.813858    24A     -0.813461
      25A     -0.794582    26A     -0.718071    27A     -0.710699
      28A     -0.681155    29A     -0.657234    30A     -0.628582
      31A     -0.623739    32A     -0.618252    33A     -0.612153
      34A     -0.582771    35A     -0.556208    36A     -0.549533
      37A     -0.524351    38A     -0.520280    39A     -0.485866
      40A     -0.473842    41A     -0.409846    42A     -0.397120
      43A     -0.370754    44A     -0.344486    45A     -0.246867

  @DF-RHF Final Energy:  -551.24496470981740

   => Energetics <=

    Nuclear Repulsion Energy =            698.4031649204872565
    One-Electron Energy =               -2133.3540649038636730
    Two-Electron Energy =                 883.7059352735591347
    DFT Exchange-Correlation Energy =       0.0000000000000000
    Empirical Dispersion Energy =           0.0000000000000000
    PCM Polarization Energy =               0.0000000000000000
    EFP Energy =                            0.0000000000000000
    Total Energy =                       -551.2449647098173955
  Basis Set: (AUG-CC-PVTZ AUX)
    Blend: AUG-CC-PVTZ-RI
    Molecular point group: c1
  Basis Set: AUG-CC-PVTZ
    Blend: AUG-CC-PVTZ
  Basis Set: (AUG-CC-PVTZ AUX)
    Blend: AUG-CC-PVTZ-JKFIT
  Basis Set: (AUG-CC-PVTZ AUX)
    Blend: AUG-CC-PVTZ-JKFIT
	 Reference Energy          =    -551.2449647098173955 [Eh]
	 Singles Energy            =      -0.0000000000000002 [Eh]
	 Same-Spin Energy          =      -0.5995707952961976 [Eh]
	 Opposite-Spin Energy      =      -1.8350649230455682 [Eh]
	 Correlation Energy        =      -2.4346357183417657 [Eh]
	 Total Energy              =    -553.6796004281591195 [Eh]

	 ================> DF-SCS-MP2 Energies <==================
	-----------------------------------------------------------
	 SCS Same-Spin Scale       =       0.3333333333333333 [-]
	 SCS Opposite-Spin Scale   =       1.2000000000000000 [-]
	 SCS Same-Spin Energy      =      -0.1998569317653992 [Eh]
	 SCS Opposite-Spin Energy  =      -2.2020779076546817 [Eh]
	 SCS Correlation Energy    =      -2.4019348394200808 [Eh]
	 SCS Total Energy          =    -553.6468995492374461 [Eh]
	-----------------------------------------------------------

  -Total Gradient:
     Atom            X                  Y                   Z
    ------   -----------------  -----------------  -----------------
       1       -0.003435085628    -0.005663958574     0.000016808123
       2       -0.000042008635    -0.000019097733    -0.000025468755
       3       -0.000012900721     0.000019923703     0.000017675287
       4        0.000006609682     0.000022738113    -0.000027956235
       5        0.004409416352     0.004104012382     0.002927314472
       6       -0.000018922338     0.000058134582    -0.000015548505
       7        0.000026520584    -0.000039281322     0.000041467350
       8        0.000010009356     0.000027668536     0.000009886407
       9        0.007908661593     0.010994081592     0.001614398582
      10       -0.008829751827    -0.009407762835    -0.004431734806
      11        0.000029824741    -0.000123437741    -0.000006845668
      12       -0.000034121072     0.000004636270     0.000005839591
      13       -0.000005027720     0.000034798708    -0.000020230572
      14       -0.000032632082    -0.000038003850     0.000058526170
      15       -0.000010248687    -0.000000870744    -0.000011607210
      16        0.000011063683    -0.000009603924     0.000011737511
      17        0.000029998298     0.000013964202    -0.000122931488
      18        0.000011366388     0.000009473027     0.000025114116
      19       -0.000002403712    -0.000003612205    -0.000079229061
      20       -0.000006197455    -0.000015522617     0.000054231349
      21       -0.000015429496     0.000043178985    -0.000049950320
      22        0.000001258688    -0.000011458549     0.000008503660

  **** Optimization is complete! (in 14 steps) ****
    Final optimized geometry and variables:
    Molecular point group: c1

    Geometry (in Angstrom), charge = 0, multiplicity = 1:

    C           -1.268464009122     0.845157722337    -0.540529564201
    C           -0.351434725014     0.067507484568     1.569168447676
    C           -2.343633299385     1.363580958549     0.106205722820
    C           -1.400409984127     0.614705638744     2.235258119911
    C            1.248988501447    -0.020293390232    -1.827146379204
    C            1.608746567432    -1.489439185911     0.036090885751
    C            2.298644544898    -0.599712214283    -2.462292240397
    C            2.647392934669    -2.050120209921    -0.633674357391
    C           -0.213551461612     0.189994247528     0.157526504425
    C            0.816003508022    -0.448930790174    -0.535974534573
    C           -2.476690307836     1.303151552380     1.548518826876
    N            2.989580217446    -1.615419577898    -1.876220245001
    O           -3.441920822108     1.796411595723     2.150934479161
    H           -1.236898525522     0.890251391995    -1.620313558248
    H            0.431410118579    -0.414717011026     2.137332928754
    H           -3.152471483074     1.824483472141    -0.441066472303
    H           -1.465183773360     0.558994265239     3.311745452888
    H            0.760348984175     0.805070697492    -2.318037577903
    H            1.366313502021    -1.889252938524     1.006255920262
    H            2.648729979277    -0.275445234441    -3.428220456160
    H            3.235096366637    -2.857667700443    -0.229485578130
    H            3.765751065817    -2.034996382125    -2.356373991542

*** Psi4 exiting successfully. Buy a developer a beer!
