                               Psi4 1.1 release

  ==> Input File <==

--------------------------------------------------------------------------

memory 5 Gb

molecule phepyrOH_neutral {
  symmetry C1
  0 1
  C      1.885   -1.036   -0.112
  C      2.878   -1.652   2.002
  C      0.807   -0.463   0.561
  C      1.800   -1.079   2.676
  C      3.862   -2.773   -1.356
  C      5.298   -2.250   0.501
  C      4.965   -3.329   -1.983
  C      6.337   -2.829   -0.209
  C      2.921   -1.631   0.608
  C      4.040   -2.225   -0.090
  C      0.764   -0.484   1.955
  N      6.202   -3.372   -1.440
  O      -0.288   0.076   2.612
  H      1.904   -1.012   -1.199
  H      3.678   -2.112   2.578
  H      0.003   -0.001   -0.006
  H      1.772   -1.098   3.762
  H      2.895   -2.772   -1.850
  H      5.475   -1.833   1.487
  H      4.879   -3.768   -2.972
  H      7.337   -2.875   0.208
  H      -0.742   -0.592   3.151
  units Angstrom
}

dih_string = "3 11 13 22 120"
set optking fixed_dihedral = $dih_string

optimize('MP2/aug-cc-PVTZ')
--------------------------------------------------------------------------

    Molecular point group: c1
  Charge       = 0
  Multiplicity = 1
  Basis Set: AUG-CC-PVTZ
    Blend: AUG-CC-PVTZ
  Basis Set: (AUG-CC-PVTZ AUX)
    Blend: AUG-CC-PVTZ-JKFIT
  @DF-RHF Final Energy:  -551.28246516676131
    Total Energy =                       -551.2824651667613125
  Basis Set: (AUG-CC-PVTZ AUX)
    Blend: AUG-CC-PVTZ-RI
    Molecular point group: c1
  Basis Set: AUG-CC-PVTZ
    Blend: AUG-CC-PVTZ
  Basis Set: (AUG-CC-PVTZ AUX)
    Blend: AUG-CC-PVTZ-JKFIT
  Basis Set: (AUG-CC-PVTZ AUX)
    Blend: AUG-CC-PVTZ-JKFIT
	 Reference Energy          =    -551.2824651667613125 [Eh]
	 Singles Energy            =      -0.0000000000000013 [Eh]
	 Same-Spin Energy          =      -0.6048259460983407 [Eh]
	 Opposite-Spin Energy      =      -1.8304807648289216 [Eh]
	 Correlation Energy        =      -2.4353067109272639 [Eh]
	 Total Energy              =    -553.7177718776886195 [Eh]
	 SCS Total Energy          =    -553.6806507332554474 [Eh]
  @DF-RHF Final Energy:  -551.28834678548685
    Total Energy =                       -551.2883467854868513
  @DF-RHF Final Energy:  -551.28956310974979
    Total Energy =                       -551.2895631097497926
  @DF-RHF Final Energy:  -551.28958161829996
    Total Energy =                       -551.2895816182999624
  @DF-RHF Final Energy:  -551.28968749136277
    Total Energy =                       -551.2896874913627698
  @DF-RHF Final Energy:  -551.28974493167334
    Total Energy =                       -551.2897449316733400
  @DF-RHF Final Energy:  -551.28973955506376
    Total Energy =                       -551.2897395550637611
  Charge       = 0
  Multiplicity = 1
  Basis Set: AUG-CC-PVTZ
    Blend: AUG-CC-PVTZ
  Basis Set: (AUG-CC-PVTZ AUX)
    Blend: AUG-CC-PVTZ-JKFIT

    Orbital Energies (a.u.)
    -----------------------

    Doubly Occupied:

       1A    -20.590633     2A    -15.561432     3A    -11.306615
       4A    -11.272390     5A    -11.272370     6A    -11.266015
       7A    -11.251709     8A    -11.250693     9A    -11.249658
      10A    -11.243319    11A    -11.240319    12A    -11.236762
      13A    -11.236723    14A     -1.405272    15A     -1.258852
      16A     -1.175990    17A     -1.106236    18A     -1.039362
      19A     -1.030621    20A     -1.012968    21A     -0.880060
      22A     -0.872220    23A     -0.841427    24A     -0.812499
      25A     -0.746229    26A     -0.724787    27A     -0.683535
      28A     -0.662688    29A     -0.653927    30A     -0.639931
      31A     -0.634427    32A     -0.606498    33A     -0.598035
      34A     -0.593857    35A     -0.554568    36A     -0.541080
      37A     -0.533749    38A     -0.521983    39A     -0.502774
      40A     -0.487277    41A     -0.418114    42A     -0.400638
      43A     -0.355158    44A     -0.348886    45A     -0.318161

  @DF-RHF Final Energy:  -551.28974367805847

   => Energetics <=

    Nuclear Repulsion Energy =            697.4427402342201958
    One-Electron Energy =               -2131.5840703310618665
    Two-Electron Energy =                 882.8515864187830857
    DFT Exchange-Correlation Energy =       0.0000000000000000
    Empirical Dispersion Energy =           0.0000000000000000
    PCM Polarization Energy =               0.0000000000000000
    EFP Energy =                            0.0000000000000000
    Total Energy =                       -551.2897436780584712
  Basis Set: (AUG-CC-PVTZ AUX)
    Blend: AUG-CC-PVTZ-RI
    Molecular point group: c1
  Basis Set: AUG-CC-PVTZ
    Blend: AUG-CC-PVTZ
  Basis Set: (AUG-CC-PVTZ AUX)
    Blend: AUG-CC-PVTZ-JKFIT
  Basis Set: (AUG-CC-PVTZ AUX)
    Blend: AUG-CC-PVTZ-JKFIT
	 Reference Energy          =    -551.2897436780584712 [Eh]
	 Singles Energy            =      -0.0000000000000002 [Eh]
	 Same-Spin Energy          =      -0.6036630616822726 [Eh]
	 Opposite-Spin Energy      =      -1.8280186021091553 [Eh]
	 Correlation Energy        =      -2.4316816637914278 [Eh]
	 Total Energy              =    -553.7214253418499084 [Eh]

	 ================> DF-SCS-MP2 Energies <==================
	-----------------------------------------------------------
	 SCS Same-Spin Scale       =       0.3333333333333333 [-]
	 SCS Opposite-Spin Scale   =       1.2000000000000000 [-]
	 SCS Same-Spin Energy      =      -0.2012210205607575 [Eh]
	 SCS Opposite-Spin Energy  =      -2.1936223225309863 [Eh]
	 SCS Correlation Energy    =      -2.3948433430917437 [Eh]
	 SCS Total Energy          =    -553.6845870211502643 [Eh]
	-----------------------------------------------------------

  -Total Gradient:
     Atom            X                  Y                   Z
    ------   -----------------  -----------------  -----------------
       1       -0.000015104301     0.000014201212     0.000026349351
       2       -0.000017716268     0.000018286870    -0.000007510771
       3       -0.000985478871    -0.001621286942    -0.000167034097
       4        0.000009675897    -0.000015053616    -0.000010124226
       5        0.000017423071     0.000018672200     0.000007521250
       6       -0.000017854408    -0.000022967763    -0.000015097633
       7        0.000011828391    -0.000097137110     0.000060494411
       8        0.000019718926     0.000087725221    -0.000083837973
       9        0.000087725509    -0.000060655289    -0.000054125241
      10       -0.000105696783     0.000058637369     0.000080603768
      11        0.001161376314     0.002306208931    -0.000239261282
      12        0.000001567992    -0.000004659708     0.000000453130
      13        0.001321408847    -0.000253336281     0.002427477793
      14        0.000002003044     0.000003044042     0.000006313034
      15       -0.000003480520    -0.000001857346    -0.000003689260
      16       -0.000004744419    -0.000014359604     0.000011076215
      17        0.000005159808     0.000005247627    -0.000006056897
      18        0.000004767663    -0.000000736483    -0.000009920293
      19        0.000008982098    -0.000004612534     0.000003131457
      20       -0.000005591171     0.000049852248    -0.000018014251
      21       -0.000019123835    -0.000037100492     0.000034597829
      22       -0.001476846989    -0.000428112547    -0.002043346306

  **** Optimization is complete! (in 8 steps) ****
    Final optimized geometry and variables:
    Molecular point group: c1

    Geometry (in Angstrom), charge = 0, multiplicity = 1:

    C           -1.240083005721     0.772586264801    -0.554667228147
    C           -0.311724959049     0.050163482678     1.530974521404
    C           -2.316017399853     1.333231319875     0.113914254718
    C           -1.378734914390     0.619698831123     2.206552799162
    C            0.750739819385    -1.087756065111    -1.808825982815
    C            2.192827862034    -0.463461765059    -0.035570553083
    C            1.851170662227    -1.640230305594    -2.444103959671
    C            3.233752901144    -1.042394362674    -0.743514531585
    C           -0.223875879789     0.119390253318     0.141362250110
    C            0.906687719855    -0.477316642614    -0.567636343392
    C           -2.385254661443     1.259406322597     1.496578495287
    N            3.084838458537    -1.628132193834    -1.933921136716
    O           -3.443829923489     1.861472925586     2.138357635333
    H           -1.179017473753     0.859716349594    -1.629265549975
    H            0.452340646248    -0.470916361967     2.088521752695
    H           -3.102269932462     1.842270873193    -0.421391347368
    H           -1.437229892887     0.571708690932     3.283633636205
    H           -0.224236995370    -1.155273045370    -2.267455613262
    H            2.389081035607     0.016803274779     0.911174778649
    H            1.736260864561    -2.120694112510    -3.405754666052
    H            4.236164277973    -1.030391676927    -0.338770322852
    H           -3.930118983940     1.194013969013     2.629879904041

*** Psi4 exiting successfully. Buy a developer a beer!
