                               Psi4 1.1 release

  ==> Input File <==

--------------------------------------------------------------------------

memory 1000 mb

molecule butane {
  symmetry C1
  0 1
  H      1.604   0.760   -8.260
  H      1.745   2.388   -8.880
  H      2.043   1.024   -9.930
  C      2.142   1.395   -8.932
  H      4.169   2.051   -9.210
  H      3.731   1.788   -7.539
  C      3.631   1.416   -8.537
  H      3.665   -0.647   -7.940
  H      4.104   -0.384   -9.610
  C      4.203   -0.012   -8.612
  H      6.229   0.644   -8.890
  H      6.088   -0.983   -8.270
  H      5.791   0.381   -7.219
  C      5.691   0.009   -8.218
  units Angstrom
}

dih_string = "7 10 14 13 60"
set optking fixed_dihedral = $dih_string

optimize('MP2/aug-cc-pvtz')
--------------------------------------------------------------------------

    Molecular point group: c1
  Charge       = 0
  Multiplicity = 1
  Basis Set: AUG-CC-PVTZ
    Blend: AUG-CC-PVTZ
  Basis Set: (AUG-CC-PVTZ AUX)
    Blend: AUG-CC-PVTZ-JKFIT
  @DF-RHF Final Energy:  -157.35281794567834
    Total Energy =                       -157.3528179456783391
  Basis Set: (AUG-CC-PVTZ AUX)
    Blend: AUG-CC-PVTZ-RI
    Molecular point group: c1
  Basis Set: AUG-CC-PVTZ
    Blend: AUG-CC-PVTZ
  Basis Set: (AUG-CC-PVTZ AUX)
    Blend: AUG-CC-PVTZ-JKFIT
  Basis Set: (AUG-CC-PVTZ AUX)
    Blend: AUG-CC-PVTZ-JKFIT
	 Reference Energy          =    -157.3528179456783391 [Eh]
	 Singles Energy            =      -0.0000000000000000 [Eh]
	 Same-Spin Energy          =      -0.1653651683546474 [Eh]
	 Opposite-Spin Energy      =      -0.6386417711673091 [Eh]
	 Correlation Energy        =      -0.8040069395219565 [Eh]
	 Total Energy              =    -158.1568248852003080 [Eh]
	 SCS Total Energy          =    -158.1743097938639835 [Eh]
  @DF-RHF Final Energy:  -157.35544172536964
    Total Energy =                       -157.3554417253696442
  @DF-RHF Final Energy:  -157.35621550789631
    Total Energy =                       -157.3562155078963087
  @DF-RHF Final Energy:  -157.35641656455951
    Total Energy =                       -157.3564165645595097
  Charge       = 0
  Multiplicity = 1
  Basis Set: AUG-CC-PVTZ
    Blend: AUG-CC-PVTZ
  Basis Set: (AUG-CC-PVTZ AUX)
    Blend: AUG-CC-PVTZ-JKFIT

    Orbital Energies (a.u.)
    -----------------------

    Doubly Occupied:

       1A    -11.211380     2A    -11.210739     3A    -11.206063
       4A    -11.206056     5A     -1.074534     6A     -0.982303
       7A     -0.860896     8A     -0.787861     9A     -0.641288
      10A     -0.585813    11A     -0.577253    12A     -0.568070
      13A     -0.514564    14A     -0.494223    15A     -0.469825
      16A     -0.461419    17A     -0.456774

  @DF-RHF Final Energy:  -157.35640889360801

   => Energetics <=

    Nuclear Repulsion Energy =            131.5644201960491273
    One-Electron Energy =                -471.2235358209513265
    Two-Electron Energy =                 182.3027067312941938
    DFT Exchange-Correlation Energy =       0.0000000000000000
    Empirical Dispersion Energy =           0.0000000000000000
    PCM Polarization Energy =               0.0000000000000000
    EFP Energy =                            0.0000000000000000
    Total Energy =                       -157.3564088936080054
  Basis Set: (AUG-CC-PVTZ AUX)
    Blend: AUG-CC-PVTZ-RI
    Molecular point group: c1
  Basis Set: AUG-CC-PVTZ
    Blend: AUG-CC-PVTZ
  Basis Set: (AUG-CC-PVTZ AUX)
    Blend: AUG-CC-PVTZ-JKFIT
  Basis Set: (AUG-CC-PVTZ AUX)
    Blend: AUG-CC-PVTZ-JKFIT
	 Reference Energy          =    -157.3564088936080054 [Eh]
	 Singles Energy            =      -0.0000000000000000 [Eh]
	 Same-Spin Energy          =      -0.1654584245958296 [Eh]
	 Opposite-Spin Energy      =      -0.6391449020879354 [Eh]
	 Correlation Energy        =      -0.8046033266837650 [Eh]
	 Total Energy              =    -158.1610122202917807 [Eh]

	 ================> DF-SCS-MP2 Energies <==================
	-----------------------------------------------------------
	 SCS Same-Spin Scale       =       0.3333333333333333 [-]
	 SCS Opposite-Spin Scale   =       1.2000000000000000 [-]
	 SCS Same-Spin Energy      =      -0.0551528081986099 [Eh]
	 SCS Opposite-Spin Energy  =      -0.7669738825055225 [Eh]
	 SCS Correlation Energy    =      -0.8221266907041324 [Eh]
	 SCS Total Energy          =    -158.1785355843121295 [Eh]
	-----------------------------------------------------------

  -Total Gradient:
     Atom            X                  Y                   Z
    ------   -----------------  -----------------  -----------------
       1       -0.000034786115    -0.000025856709     0.000025022937
       2       -0.000013250957     0.000040726759     0.000003178885
       3       -0.000015854758    -0.000015454252    -0.000047509944
       4        0.000116071219    -0.000037383662     0.000027427577
       5        0.000007772352    -0.000006479604    -0.000023499219
       6       -0.000004261026    -0.000012915708     0.000021660375
       7        0.000014548963     0.000032586369    -0.000038336268
       8       -0.000003827462     0.000001034443     0.000021112574
       9        0.000001501583     0.000018353539    -0.000026662563
      10       -0.000025129456    -0.000050550890     0.000065086853
      11        0.000033351450     0.000019275788    -0.000027667080
      12        0.000013173181    -0.000047805115     0.000002427551
      13        0.000009096337    -0.000043572041     0.000063480036
      14       -0.000098405314     0.000128041087    -0.000065721716

  **** Optimization is complete! (in 5 steps) ****
    Final optimized geometry and variables:
    Molecular point group: c1

    Geometry (in Angstrom), charge = 0, multiplicity = 1:

    H           -2.348752057010     0.053199909328     0.311642633827
    H           -2.202091148916     1.692560738984    -0.311801628143
    H           -1.907945959740     0.317001322605    -1.369640814308
    C           -1.775407338398     0.693220320390    -0.356732147032
    H            0.247789400525     1.355979652765    -0.636354410751
    H           -0.190558227270     1.093506675720     1.035681893583
    C           -0.308132438697     0.692235494068     0.027779874519
    H           -0.247998907869    -1.356427367435     0.635168761245
    H            0.191275798132    -1.092656173559    -1.036427691174
    C            0.308225288251    -0.692127609478    -0.028151013240
    H            2.348320191253    -0.049233593161    -0.307670111279
    H            2.203056105608    -1.691954921192     0.307237640655
    H            1.906891769490    -0.322625717477     1.372168688728
    C            1.775315583661    -0.693273658683     0.357102868985

*** Psi4 exiting successfully. Buy a developer a beer!
