                               Psi4 1.1 release

  ==> Input File <==

--------------------------------------------------------------------------

molecule phepyr {
  symmetry C1
  0 1
  C      1.885   -1.036   -0.112
  C      0.807   -0.463   0.561
  C      2.921   -1.631   0.608
  C      0.764   -0.484   1.955
  C      2.878   -1.652   2.002
  C      1.153   -2.164   4.786
  C      2.315   -0.059   4.853
  C      1.137   -2.138   6.171
  C      2.247   -0.128   6.235
  C      1.800   -1.079   2.676
  C      1.755   -1.101   4.122
  N      1.671   -1.144   6.915
  H      1.917   -1.021   -1.198
  H      -0.001   -0.002   0.000
  H      3.760   -2.079   0.084
  H      -0.084   -0.033   2.466
  H      3.693   -2.120   2.550
  H      0.706   -2.995   4.250
  H      2.793   0.787   4.369
  H      0.681   -2.944   6.736
  H      2.668   0.660   6.851
  units Angstrom
}

dih_string = "4 10 11 6 90"
set optking fixed_dihedral = $dih_string

optimize('MP2/aug-cc-PVTZ')
--------------------------------------------------------------------------

    Molecular point group: c1
  Charge       = 0
  Multiplicity = 1
  Basis Set: AUG-CC-PVTZ
    Blend: AUG-CC-PVTZ
  Basis Set: (AUG-CC-PVTZ AUX)
    Blend: AUG-CC-PVTZ-JKFIT
  @DF-RHF Final Energy:  -476.39476843193717
    Total Energy =                       -476.3947684319371092
  Basis Set: (AUG-CC-PVTZ AUX)
    Blend: AUG-CC-PVTZ-RI
    Molecular point group: c1
  Basis Set: AUG-CC-PVTZ
    Blend: AUG-CC-PVTZ
  Basis Set: (AUG-CC-PVTZ AUX)
    Blend: AUG-CC-PVTZ-JKFIT
  Basis Set: (AUG-CC-PVTZ AUX)
    Blend: AUG-CC-PVTZ-JKFIT
	 Reference Energy          =    -476.3947684319371660 [Eh]
	 Singles Energy            =      -0.0000000000000001 [Eh]
	 Same-Spin Energy          =      -0.5341611696889731 [Eh]
	 Opposite-Spin Energy      =      -1.6424563004648669 [Eh]
	 Correlation Energy        =      -2.1766174701538401 [Eh]
	 Total Energy              =    -478.5713859020909808 [Eh]
	 SCS Total Energy          =    -478.5437697157246362 [Eh]
  @DF-RHF Final Energy:  -476.39952923576999
    Total Energy =                       -476.3995292357700464
  @DF-RHF Final Energy:  -476.39989886109549
    Total Energy =                       -476.3998988610954939
  Charge       = 0
  Multiplicity = 1
  Basis Set: AUG-CC-PVTZ
    Blend: AUG-CC-PVTZ
  Basis Set: (AUG-CC-PVTZ AUX)
    Blend: AUG-CC-PVTZ-JKFIT

    Orbital Energies (a.u.)
    -----------------------

    Doubly Occupied:

       1A    -15.563455     2A    -11.272920     3A    -11.272904
       4A    -11.264213     5A    -11.251694     6A    -11.242861
       7A    -11.242729     8A    -11.241610     9A    -11.241442
      10A    -11.239940    11A    -11.237795    12A    -11.237756
      13A     -1.259918    14A     -1.173861    15A     -1.107407
      16A     -1.034833    17A     -1.026218    18A     -1.018757
      19A     -0.879286    20A     -0.859331    21A     -0.838552
      22A     -0.807797    23A     -0.730907    24A     -0.689124
      25A     -0.669783    26A     -0.653951    27A     -0.639563
      28A     -0.634177    29A     -0.597409    30A     -0.597035
      31A     -0.582528    32A     -0.541536    33A     -0.527913
      34A     -0.507527    35A     -0.504874    36A     -0.504476
      37A     -0.417892    38A     -0.379275    39A     -0.352765
      40A     -0.343909    41A     -0.343340

  @DF-RHF Final Energy:  -476.39987912159523

   => Energetics <=

    Nuclear Repulsion Energy =            605.3100857698807431
    One-Electron Energy =               -1844.3534086090276105
    Two-Electron Energy =                 762.6434437175516905
    DFT Exchange-Correlation Energy =       0.0000000000000000
    Empirical Dispersion Energy =           0.0000000000000000
    PCM Polarization Energy =               0.0000000000000000
    EFP Energy =                            0.0000000000000000
    Total Energy =                       -476.3998791215951769
  Basis Set: (AUG-CC-PVTZ AUX)
    Blend: AUG-CC-PVTZ-RI
    Molecular point group: c1
  Basis Set: AUG-CC-PVTZ
    Blend: AUG-CC-PVTZ
  Basis Set: (AUG-CC-PVTZ AUX)
    Blend: AUG-CC-PVTZ-JKFIT
  Basis Set: (AUG-CC-PVTZ AUX)
    Blend: AUG-CC-PVTZ-JKFIT
	 Reference Energy          =    -476.3998791215952338 [Eh]
	 Singles Energy            =      -0.0000000000000002 [Eh]
	 Same-Spin Energy          =      -0.5333515504353044 [Eh]
	 Opposite-Spin Energy      =      -1.6403145119030558 [Eh]
	 Correlation Energy        =      -2.1736660623383601 [Eh]
	 Total Energy              =    -478.5735451839336179 [Eh]

	 ================> DF-SCS-MP2 Energies <==================
	-----------------------------------------------------------
	 SCS Same-Spin Scale       =       0.3333333333333333 [-]
	 SCS Opposite-Spin Scale   =       1.2000000000000000 [-]
	 SCS Same-Spin Energy      =      -0.1777838501451015 [Eh]
	 SCS Opposite-Spin Energy  =      -1.9683774142836667 [Eh]
	 SCS Correlation Energy    =      -2.1461612644287680 [Eh]
	 SCS Total Energy          =    -478.5460403860240035 [Eh]
	-----------------------------------------------------------

  -Total Gradient:
     Atom            X                  Y                   Z
    ------   -----------------  -----------------  -----------------
       1        0.000016908515     0.000022790265    -0.000064861430
       2        0.000006842835    -0.000009561902    -0.000015452333
       3       -0.000019645588     0.000002333908    -0.000017381122
       4        0.000035626005    -0.000004589206     0.000076546009
       5       -0.000027495248     0.000032470978     0.000079405610
       6        0.000067581143     0.000076572798     0.000023751144
       7       -0.000046546927    -0.000083041639     0.000022987451
       8       -0.000096446636     0.000039174436    -0.000048663657
       9        0.000047245056    -0.000007515387    -0.000045639936
      10        0.000005090562    -0.000009459216    -0.000158741991
      11       -0.000010762665    -0.000009612234     0.000124363457
      12        0.000022452384    -0.000014562077     0.000033328529
      13       -0.000004394872    -0.000006095723    -0.000003747238
      14       -0.000016420382    -0.000000612202     0.000030361643
      15        0.000009115844    -0.000014424511     0.000031549761
      16       -0.000038578746     0.000018220306    -0.000022295695
      17        0.000037012037    -0.000023479100    -0.000020458347
      18       -0.000002493200    -0.000024480549    -0.000026090020
      19        0.000006852002     0.000021531385    -0.000028184926
      20        0.000049744656     0.000023477396     0.000017012558
      21       -0.000041686777    -0.000029137725     0.000012210534

  **** Optimization is complete! (in 4 steps) ****
    Final optimized geometry and variables:
    Molecular point group: c1

    Geometry (in Angstrom), charge = 0, multiplicity = 1:

    C            0.108054000838     0.053780529951    -3.545395953876
    C           -0.964476908376     0.623989010050    -2.873400059484
    C            1.138174992008    -0.537622660012    -2.826985600263
    C           -1.006462819143     0.602864018898    -1.486263987357
    C            1.095741431196    -0.558476985010    -1.439854392494
    C           -0.616748995210    -1.060445313324     1.399982484647
    C            0.529405773172     1.016947414979     1.466360646697
    C           -0.635304854578    -1.037905105096     2.786536881445
    C            0.463368165432     0.952589405528     2.850146841391
    C            0.023185528876     0.011479397754    -0.759048846536
    C           -0.021637895267    -0.010828802945     0.710769806825
    N           -0.107175298910    -0.053277304805     3.516888497996
    H            0.140789838700     0.069953898751    -4.623913264977
    H           -1.767666838340     1.084656217544    -3.428083447313
    H            1.973868964445    -0.982350014991    -3.345481609925
    H           -1.839218324594     1.045365435473    -0.959890851070
    H            1.895236133170    -1.017695533602    -0.877462509918
    H           -1.059645533535    -1.884197349564     0.860499934142
    H            1.003646889766     1.856156768073     0.979957409482
    H           -1.094087917270    -1.847203876475     3.337127986032
    H            0.887183066279     1.744369211791     3.451859894342

*** Psi4 exiting successfully. Buy a developer a beer!
