                              Psi4 1.0.0 Driver

  ==> Input File <==

--------------------------------------------------------------------------

memory 1000 mb

molecule butane {
  symmetry C1
  0 1
  H      1.604   0.760   -8.260
  H      1.745   2.388   -8.880
  H      2.043   1.024   -9.930
  C      2.142   1.395   -8.932
  H      4.169   2.051   -9.210
  H      3.731   1.788   -7.539
  C      3.631   1.416   -8.537
  H      4.405   -0.367   -7.623
  H      3.492   -0.657   -9.084
  C      4.203   -0.012   -8.612
  H      5.904   -0.993   -9.482
  H      6.219   0.644   -8.959
  H      5.306   0.354   -10.419
  C      5.507   -0.001   -9.430
  units Angstrom
}

dih_string = "4 7 10 14 130"
set optking fixed_dihedral = $dih_string

optimize('B3LYP/cc-PVDZ')
--------------------------------------------------------------------------

    Molecular point group: c1
  Charge       = 0
  Multiplicity = 1
  Basis Set: CC-PVDZ
   => B3LYP Composite Functional <=
  Basis Set:
  @DF-RKS Final Energy:  -158.44391283003608
    Total Energy =                       -158.4439128300360835
    Molecular point group: c1
  Basis Set: CC-PVDZ
  Basis Set:
   => B3LYP Composite Functional <=
  Basis Set: CC-PVDZ
   => B3LYP Composite Functional <=
  Basis Set:
  @DF-RKS Final Energy:  -158.44986048656440
    Total Energy =                       -158.4498604865644040
  Basis Set: CC-PVDZ
  Basis Set:
   => B3LYP Composite Functional <=
  Basis Set: CC-PVDZ
   => B3LYP Composite Functional <=
  Basis Set:
  @DF-RKS Final Energy:  -158.45265865312558
    Total Energy =                       -158.4526586531255816
  Basis Set: CC-PVDZ
  Basis Set:
  @DF-RKS Final Energy:  -158.45354311557307
    Total Energy =                       -158.4535431155730691
  @DF-RKS Final Energy:  -158.45378190095482
    Total Energy =                       -158.4537819009548230
   => B3LYP Composite Functional <=
  Basis Set:
  @DF-RKS Final Energy:  -158.45379957870944
    Total Energy =                       -158.4537995787094360
  Basis Set: CC-PVDZ
  Basis Set:
   => B3LYP Composite Functional <=
  Basis Set: CC-PVDZ
   => B3LYP Composite Functional <=
  Basis Set:
  @DF-RKS Final Energy:  -158.45380204355763
    Total Energy =                       -158.4538020435576300
  Basis Set: CC-PVDZ
  Basis Set:
   => B3LYP Composite Functional <=
  Charge       = 0
  Multiplicity = 1
  Basis Set: CC-PVDZ
   => B3LYP Composite Functional <=
  Basis Set:

    Orbital Energies (a.u.)
    -----------------------

    Doubly Occupied:

       1A    -10.179987     2A    -10.179837     3A    -10.176259
       4A    -10.176257     5A     -0.788420     6A     -0.720160
       7A     -0.627581     8A     -0.571632     9A     -0.458605
      10A     -0.428602    11A     -0.419798    12A     -0.397210
      13A     -0.362736    14A     -0.358508    15A     -0.325753
      16A     -0.319933    17A     -0.315788

  @DF-RKS Final Energy:  -158.45380280128697

   => Energetics <=

    Nuclear Repulsion Energy =            129.9575179760082619
    One-Electron Energy =                -468.4115793493401725
    Two-Electron Energy =                 200.5819281545756780
    DFT Exchange-Correlation Energy =     -20.5816695825307399
    Empirical Dispersion Energy =           0.0000000000000000
    PCM Polarization Energy =               0.0000000000000000
    EFP Energy =                            0.0000000000000000
    Total Energy =                       -158.4538028012869688
    Molecular point group: c1
  Basis Set: CC-PVDZ
  Basis Set:
   => B3LYP Composite Functional <=

  -Total Gradient:
     Atom            X                  Y                   Z
    ------   -----------------  -----------------  -----------------
       1        0.000017551135     0.000014729691    -0.000012390843
       2        0.000013807103    -0.000029375493    -0.000000129769
       3        0.000008684882     0.000005050023     0.000029663390
       4        0.000386318528     0.000319769671    -0.001726342545
       5       -0.000008725885     0.000003458703    -0.000008704866
       6        0.000012204572     0.000005891966    -0.000020021185
       7       -0.000954656253    -0.000616142492     0.001818207222
       8       -0.000017604530    -0.000006130001    -0.000015427363
       9        0.000006262778    -0.000003272469    -0.000010608188
      10        0.001449516957     0.000642492699     0.001442945941
      11       -0.000013660225     0.000030442746     0.000003478549
      12       -0.000019921719    -0.000014786893    -0.000006577537
      13        0.000000792081    -0.000004198071     0.000030326130
      14       -0.000881060693    -0.000347956020    -0.001527662681

  **** Optimization is complete! (in 8 steps) ****
    Final optimized geometry and variables:
    Molecular point group: c1

    Geometry (in Angstrom), charge = 0, multiplicity = 1:

    H           -2.353070905297     0.031530938621     0.639756138338
    H           -2.213164350527     1.705082009868     0.051005649458
    H           -1.922607359806     0.341641886305    -1.057704191993
    C           -1.773563245579     0.696781785934    -0.023576837604
    H            0.240305475143     1.396337637729    -0.329625371380
    H           -0.158724811676     1.118480216230     1.360527986427
    C           -0.287615416070     0.699763422439     0.347251362420
    H            0.557650217332    -1.096749755508     1.270194403710
    H           -0.323797707216    -1.400884995253    -0.220978598173
    C            0.379341344976    -0.694766816301     0.257632518763
    H            2.132962966322    -1.709451401968    -0.579852780487
    H            2.437029515355    -0.026968772375    -0.086130780250
    H            1.523469571001    -0.363371220677    -1.574443744862
    C            1.688551731694    -0.701412765159    -0.537025622958

*** Psi4 exiting successfully. Buy a developer a beer!
