                               Psi4 1.1 release

  ==> Input File <==

--------------------------------------------------------------------------

memory 1000 mb

molecule butane {
  symmetry C1
  0 1
  H      1.604   0.760   -8.260
  H      1.745   2.388   -8.880
  H      2.043   1.024   -9.930
  C      2.142   1.395   -8.932
  H      4.169   2.051   -9.210
  H      3.731   1.788   -7.539
  C      3.631   1.416   -8.537
  H      3.665   -0.647   -7.940
  H      4.104   -0.384   -9.610
  C      4.203   -0.012   -8.612
  H      6.276   0.337   -9.051
  H      5.998   -0.975   -7.931
  H      5.834   0.680   -7.397
  C      5.691   0.009   -8.218
  units Angstrom
}

dih_string = "7 10 14 13 40"
set optking fixed_dihedral = $dih_string

optimize('MP2/aug-cc-pvtz')
--------------------------------------------------------------------------

    Molecular point group: c1
  Charge       = 0
  Multiplicity = 1
  Basis Set: AUG-CC-PVTZ
    Blend: AUG-CC-PVTZ
  Basis Set: (AUG-CC-PVTZ AUX)
    Blend: AUG-CC-PVTZ-JKFIT
  @DF-RHF Final Energy:  -157.35140467134678
    Total Energy =                       -157.3514046713467849
  Basis Set: (AUG-CC-PVTZ AUX)
    Blend: AUG-CC-PVTZ-RI
    Molecular point group: c1
  Basis Set: AUG-CC-PVTZ
    Blend: AUG-CC-PVTZ
  Basis Set: (AUG-CC-PVTZ AUX)
    Blend: AUG-CC-PVTZ-JKFIT
  Basis Set: (AUG-CC-PVTZ AUX)
    Blend: AUG-CC-PVTZ-JKFIT
	 Reference Energy          =    -157.3514046713467849 [Eh]
	 Singles Energy            =      -0.0000000000000000 [Eh]
	 Same-Spin Energy          =      -0.1654012187831645 [Eh]
	 Opposite-Spin Energy      =      -0.6388832656868221 [Eh]
	 Correlation Energy        =      -0.8042844844699866 [Eh]
	 Total Energy              =    -158.1556891558167592 [Eh]
	 SCS Total Energy          =    -158.1731983297653699 [Eh]
  @DF-RHF Final Energy:  -157.35410165780567
    Total Energy =                       -157.3541016578056713
  @DF-RHF Final Energy:  -157.35493808353959
    Total Energy =                       -157.3549380835395937
  @DF-RHF Final Energy:  -157.35522808913865
    Total Energy =                       -157.3552280891386488
  @DF-RHF Final Energy:  -157.35524466463548
    Total Energy =                       -157.3552446646354781
  Charge       = 0
  Multiplicity = 1
  Basis Set: AUG-CC-PVTZ
    Blend: AUG-CC-PVTZ
  Basis Set: (AUG-CC-PVTZ AUX)
    Blend: AUG-CC-PVTZ-JKFIT

    Orbital Energies (a.u.)
    -----------------------

    Doubly Occupied:

       1A    -11.211513     2A    -11.210823     3A    -11.206046
       4A    -11.205914     5A     -1.074199     6A     -0.981850
       7A     -0.861125     8A     -0.788305     9A     -0.640436
      10A     -0.586045    11A     -0.577894    12A     -0.567512
      13A     -0.514470    14A     -0.493947    15A     -0.470304
      16A     -0.460276    17A     -0.456744

  @DF-RHF Final Energy:  -157.35525072089087

   => Energetics <=

    Nuclear Repulsion Energy =            131.5171617200598178
    One-Electron Energy =                -471.1300165242061553
    Two-Electron Energy =                 182.2576040832554440
    DFT Exchange-Correlation Energy =       0.0000000000000000
    Empirical Dispersion Energy =           0.0000000000000000
    PCM Polarization Energy =               0.0000000000000000
    EFP Energy =                            0.0000000000000000
    Total Energy =                       -157.3552507208908651
  Basis Set: (AUG-CC-PVTZ AUX)
    Blend: AUG-CC-PVTZ-RI
    Molecular point group: c1
  Basis Set: AUG-CC-PVTZ
    Blend: AUG-CC-PVTZ
  Basis Set: (AUG-CC-PVTZ AUX)
    Blend: AUG-CC-PVTZ-JKFIT
  Basis Set: (AUG-CC-PVTZ AUX)
    Blend: AUG-CC-PVTZ-JKFIT
	 Reference Energy          =    -157.3552507208908651 [Eh]
	 Singles Energy            =      -0.0000000000000000 [Eh]
	 Same-Spin Energy          =      -0.1654703152519957 [Eh]
	 Opposite-Spin Energy      =      -0.6393388164093210 [Eh]
	 Correlation Energy        =      -0.8048091316613167 [Eh]
	 Total Energy              =    -158.1600598525521946 [Eh]

	 ================> DF-SCS-MP2 Energies <==================
	-----------------------------------------------------------
	 SCS Same-Spin Scale       =       0.3333333333333333 [-]
	 SCS Opposite-Spin Scale   =       1.2000000000000000 [-]
	 SCS Same-Spin Energy      =      -0.0551567717506652 [Eh]
	 SCS Opposite-Spin Energy  =      -0.7672065796911852 [Eh]
	 SCS Correlation Energy    =      -0.8223633514418505 [Eh]
	 SCS Total Energy          =    -158.1776140723327160 [Eh]
	-----------------------------------------------------------

  -Total Gradient:
     Atom            X                  Y                   Z
    ------   -----------------  -----------------  -----------------
       1       -0.000006807000    -0.000000042214    -0.000008870868
       2       -0.000009280988    -0.000003603435    -0.000000671987
       3        0.000010777656    -0.000000508522     0.000002072032
       4        0.000001240347     0.000006847420     0.000037778911
       5        0.000012465493     0.000003718852     0.000004786047
       6       -0.000006798622     0.000006154143    -0.000021811850
       7       -0.000480192170    -0.000279608679     0.001884302895
       8        0.000019478250    -0.000006138224    -0.000021064265
       9       -0.000012335696     0.000000897307    -0.000013495547
      10        0.000780961843     0.000906202516    -0.003050440766
      11       -0.000023081611    -0.000012218569     0.000016234434
      12        0.000006441311    -0.000008337867     0.000014251849
      13        0.000437028764     0.002033338599    -0.001756737655
      14       -0.000729897582    -0.002646701329     0.002913666771

  **** Optimization is complete! (in 6 steps) ****
    Final optimized geometry and variables:
    Molecular point group: c1

    Geometry (in Angstrom), charge = 0, multiplicity = 1:

    H           -2.353905938923     0.044302887665     0.279388308036
    H           -2.200994576164     1.694707362394    -0.312637054741
    H           -1.889679400805     0.338547233617    -1.390363230215
    C           -1.772236283187     0.696915972563    -0.369336488344
    H            0.255826081588     1.360057578478    -0.613116049915
    H           -0.207288792597     1.082017099652     1.049718758498
    C           -0.310839326421     0.690727548849     0.036786082304
    H           -0.245153165896    -1.339286397073     0.674222671598
    H            0.162984602996    -1.119535764998    -1.009718213742
    C            0.303336559552    -0.695115682818    -0.014945352917
    H            2.378243124954    -0.337012293646    -0.487079664881
    H            2.137168135041    -1.685052616893     0.615452050240
    H            1.968839335060    -0.017751785290     1.180259531992
    C            1.779231828073    -0.694290970025     0.348660879704

*** Psi4 exiting successfully. Buy a developer a beer!
