                               Psi4 1.1 release

  ==> Input File <==

--------------------------------------------------------------------------

memory 5 Gb

molecule phepyrOH_neutral {
  symmetry C1
  0 1
  C      1.885   -1.036   -0.112
  C      2.878   -1.652   2.002
  C      0.807   -0.463   0.561
  C      1.800   -1.079   2.676
  C      3.862   -2.773   -1.356
  C      5.298   -2.250   0.501
  C      4.965   -3.329   -1.983
  C      6.337   -2.829   -0.209
  C      2.921   -1.631   0.608
  C      4.040   -2.225   -0.090
  C      0.764   -0.484   1.955
  N      6.202   -3.372   -1.440
  O      -0.288   0.076   2.612
  H      1.904   -1.012   -1.199
  H      3.678   -2.112   2.578
  H      0.003   -0.001   -0.006
  H      1.772   -1.098   3.762
  H      2.895   -2.772   -1.850
  H      5.475   -1.833   1.487
  H      4.879   -3.768   -2.972
  H      7.337   -2.875   0.208
  H      -0.595   -0.513   3.320
  units Angstrom
}

dih_string = "3 11 13 22 135"
set optking fixed_dihedral = $dih_string

optimize('MP2/aug-cc-PVTZ')
--------------------------------------------------------------------------

    Molecular point group: c1
  Charge       = 0
  Multiplicity = 1
  Basis Set: AUG-CC-PVTZ
    Blend: AUG-CC-PVTZ
  Basis Set: (AUG-CC-PVTZ AUX)
    Blend: AUG-CC-PVTZ-JKFIT
  @DF-RHF Final Energy:  -551.28342237481331
    Total Energy =                       -551.2834223748133127
  Basis Set: (AUG-CC-PVTZ AUX)
    Blend: AUG-CC-PVTZ-RI
    Molecular point group: c1
  Basis Set: AUG-CC-PVTZ
    Blend: AUG-CC-PVTZ
  Basis Set: (AUG-CC-PVTZ AUX)
    Blend: AUG-CC-PVTZ-JKFIT
  Basis Set: (AUG-CC-PVTZ AUX)
    Blend: AUG-CC-PVTZ-JKFIT
	 Reference Energy          =    -551.2834223748133127 [Eh]
	 Singles Energy            =      -0.0000000000000003 [Eh]
	 Same-Spin Energy          =      -0.6049794334930246 [Eh]
	 Opposite-Spin Energy      =      -1.8306328614775804 [Eh]
	 Correlation Energy        =      -2.4356122949706056 [Eh]
	 Total Energy              =    -553.7190346697839232 [Eh]
	 SCS Total Energy          =    -553.6818416197507986 [Eh]
  @DF-RHF Final Energy:  -551.28936504402805
    Total Energy =                       -551.2893650440280453
  @DF-RHF Final Energy:  -551.29064869031538
    Total Energy =                       -551.2906486903153791
  @DF-RHF Final Energy:  -551.29068139622473
    Total Energy =                       -551.2906813962247270
  @DF-RHF Final Energy:  -551.29078790382778
    Total Energy =                       -551.2907879038277770
  Charge       = 0
  Multiplicity = 1
  Basis Set: AUG-CC-PVTZ
    Blend: AUG-CC-PVTZ
  Basis Set: (AUG-CC-PVTZ AUX)
    Blend: AUG-CC-PVTZ-JKFIT

    Orbital Energies (a.u.)
    -----------------------

    Doubly Occupied:

       1A    -20.594376     2A    -15.560806     3A    -11.309010
       4A    -11.271912     5A    -11.271886     6A    -11.265545
       7A    -11.252086     8A    -11.250604     9A    -11.248782
      10A    -11.243598    11A    -11.239208    12A    -11.236115
      13A    -11.236071    14A     -1.409980    15A     -1.258290
      16A     -1.175852    17A     -1.105959    18A     -1.039249
      19A     -1.030464    20A     -1.013044    21A     -0.880666
      22A     -0.872241    23A     -0.842319    24A     -0.812647
      25A     -0.747516    26A     -0.725429    27A     -0.683839
      28A     -0.662421    29A     -0.655287    30A     -0.636979
      31A     -0.631305    32A     -0.606445    33A     -0.599462
      34A     -0.593436    35A     -0.560412    36A     -0.542425
      37A     -0.533895    38A     -0.523559    39A     -0.500849
      40A     -0.491907    41A     -0.417585    42A     -0.399000
      43A     -0.355636    44A     -0.348415    45A     -0.315254

  @DF-RHF Final Energy:  -551.29083446186689

   => Energetics <=

    Nuclear Repulsion Energy =            697.5930601279005714
    One-Electron Energy =               -2131.8642510498661977
    Two-Electron Energy =                 882.9803564600987329
    DFT Exchange-Correlation Energy =       0.0000000000000000
    Empirical Dispersion Energy =           0.0000000000000000
    PCM Polarization Energy =               0.0000000000000000
    EFP Energy =                            0.0000000000000000
    Total Energy =                       -551.2908344618668934
  Basis Set: (AUG-CC-PVTZ AUX)
    Blend: AUG-CC-PVTZ-RI
    Molecular point group: c1
  Basis Set: AUG-CC-PVTZ
    Blend: AUG-CC-PVTZ
  Basis Set: (AUG-CC-PVTZ AUX)
    Blend: AUG-CC-PVTZ-JKFIT
  Basis Set: (AUG-CC-PVTZ AUX)
    Blend: AUG-CC-PVTZ-JKFIT
	 Reference Energy          =    -551.2908344618668934 [Eh]
	 Singles Energy            =      -0.0000000000000001 [Eh]
	 Same-Spin Energy          =      -0.6038268530969407 [Eh]
	 Opposite-Spin Energy      =      -1.8280857754721966 [Eh]
	 Correlation Energy        =      -2.4319126285691373 [Eh]
	 Total Energy              =    -553.7227470904360871 [Eh]

	 ================> DF-SCS-MP2 Energies <==================
	-----------------------------------------------------------
	 SCS Same-Spin Scale       =       0.3333333333333333 [-]
	 SCS Opposite-Spin Scale   =       1.2000000000000000 [-]
	 SCS Same-Spin Energy      =      -0.2012756176989802 [Eh]
	 SCS Opposite-Spin Energy  =      -2.1937029305666358 [Eh]
	 SCS Correlation Energy    =      -2.3949785482656161 [Eh]
	 SCS Total Energy          =    -553.6858130101325060 [Eh]
	-----------------------------------------------------------

  -Total Gradient:
     Atom            X                  Y                   Z
    ------   -----------------  -----------------  -----------------
       1       -0.000016775611     0.000026572078     0.000020169359
       2       -0.000001163852    -0.000002848729     0.000000080752
       3       -0.001211901883    -0.001997485765    -0.000191479138
       4       -0.000031706441     0.000003571669    -0.000005121358
       5        0.000029175567     0.000038869221    -0.000021101620
       6       -0.000004246682    -0.000056503744     0.000019431448
       7       -0.000008557146    -0.000165979743     0.000070141970
       8        0.000054069145     0.000165645222    -0.000109285085
       9        0.000134424780    -0.000081916055    -0.000086735266
      10       -0.000182551553     0.000094212631     0.000106972695
      11        0.001362930907     0.002662118812    -0.000197958547
      12       -0.000009382988    -0.000007189745     0.000007325253
      13        0.001840000620     0.000579762340     0.002557883203
      14        0.000001567380    -0.000014974305     0.000037575962
      15       -0.000019336262     0.000021712141    -0.000033928332
      16        0.000004408202    -0.000017511728     0.000023296951
      17        0.000011774450     0.000005471169    -0.000020925267
      18        0.000039846102    -0.000004857199     0.000004298706
      19        0.000006856209    -0.000019225686    -0.000030825400
      20       -0.000013588536     0.000072999028    -0.000025329300
      21       -0.000029796182    -0.000055811378     0.000056277014
      22       -0.001956046228    -0.001246630239    -0.002180763991

  **** Optimization is complete! (in 6 steps) ****
    Final optimized geometry and variables:
    Molecular point group: c1

    Geometry (in Angstrom), charge = 0, multiplicity = 1:

    C           -1.236994387707     0.779921523299    -0.552162938720
    C           -0.315362970665     0.044208190123     1.530361579725
    C           -2.312535481939     1.340365611530     0.116005909807
    C           -1.381066805666     0.615097396740     2.206861757170
    C            0.751124960782    -1.079073227420    -1.813634858208
    C            2.190537920768    -0.475026468772    -0.031604112221
    C            1.850514653291    -1.633587975990    -2.448895687377
    C            3.230636845849    -1.054976234081    -0.739848552990
    C           -0.223296750515     0.120147353506     0.141696043613
    C            0.905941705137    -0.477796915079    -0.567757541406
    C           -2.383122586273     1.264460091133     1.498825849490
    N            3.082581046776    -1.631929191233    -1.934660904205
    O           -3.447682450542     1.861175322078     2.124942459680
    H           -1.175894767162     0.869975150809    -1.626459244789
    H            0.444230661886    -0.483458939890     2.087695934768
    H           -3.098457202233     1.850364874036    -0.418792533911
    H           -1.437751126258     0.558896292244     3.284084209887
    H           -0.222497919111    -1.138412943652    -2.276108545264
    H            2.386459051332    -0.002199474454     0.918898253153
    H            1.735979977626    -2.106620661173    -3.414280121881
    H            4.231566188742    -1.051654348975    -0.331267763674
    H           -3.793111012857     1.262803186840     2.793030528564

*** Psi4 exiting successfully. Buy a developer a beer!
