                              Psi4 1.0.0 Driver

  ==> Input File <==

--------------------------------------------------------------------------

memory 1000 mb

molecule butane {
  symmetry C1
  0 1
  H      1.604   0.760   -8.260
  H      1.745   2.388   -8.880
  H      2.043   1.024   -9.930
  C      2.142   1.395   -8.932
  H      4.169   2.051   -9.210
  H      3.731   1.788   -7.539
  C      3.631   1.416   -8.537
  H      3.428   -0.718   -8.400
  H      4.589   -0.191   -9.593
  C      4.203   -0.012   -8.612
  H      5.732   -1.159   -7.632
  H      4.949   0.011   -6.598
  H      6.111   0.539   -7.791
  C      5.335   -0.167   -7.580
  units Angstrom
}

dih_string = "4 7 10 14 210"
set optking fixed_dihedral = $dih_string

optimize('B3LYP/cc-PVDZ')
--------------------------------------------------------------------------

    Molecular point group: c1
  Charge       = 0
  Multiplicity = 1
  Basis Set: CC-PVDZ
   => B3LYP Composite Functional <=
  Basis Set:
  @DF-RKS Final Energy:  -158.44645307853270
    Total Energy =                       -158.4464530785326986
    Molecular point group: c1
  Basis Set: CC-PVDZ
  Basis Set:
   => B3LYP Composite Functional <=
  Basis Set: CC-PVDZ
   => B3LYP Composite Functional <=
  Basis Set:
  @DF-RKS Final Energy:  -158.45235538904197
    Total Energy =                       -158.4523553890419691
  Basis Set: CC-PVDZ
  Basis Set:
   => B3LYP Composite Functional <=
  Basis Set: CC-PVDZ
   => B3LYP Composite Functional <=
  Basis Set:
  @DF-RKS Final Energy:  -158.45511726878070
    Total Energy =                       -158.4551172687806968
  Basis Set: CC-PVDZ
  Basis Set:
  @DF-RKS Final Energy:  -158.45599880098280
    Total Energy =                       -158.4559988009827975
   => B3LYP Composite Functional <=
  Basis Set:
  @DF-RKS Final Energy:  -158.45627607495371
    Total Energy =                       -158.4562760749537063
  Basis Set: CC-PVDZ
  Basis Set:
   => B3LYP Composite Functional <=
  Basis Set: CC-PVDZ
   => B3LYP Composite Functional <=
  Basis Set:
  @DF-RKS Final Energy:  -158.45633594381181
    Total Energy =                       -158.4563359438118084
  Basis Set: CC-PVDZ
  Basis Set:
   => B3LYP Composite Functional <=
  Charge       = 0
  Multiplicity = 1
  Basis Set: CC-PVDZ
   => B3LYP Composite Functional <=
  Basis Set:

    Orbital Energies (a.u.)
    -----------------------

    Doubly Occupied:

       1A    -10.180123     2A    -10.179965     3A    -10.176112
       4A    -10.176109     5A     -0.789579     6A     -0.720510
       7A     -0.627119     8A     -0.572014     9A     -0.461674
      10A     -0.421443    11A     -0.421236    12A     -0.402507
      13A     -0.364485    14A     -0.352706    15A     -0.327645
      16A     -0.320519    17A     -0.317997

  @DF-RKS Final Energy:  -158.45634013878072

   => Energetics <=

    Nuclear Repulsion Energy =            129.8929194520656552
    One-Electron Energy =                -468.2774743686975967
    Two-Electron Energy =                 200.5108548125879224
    DFT Exchange-Correlation Energy =     -20.5826400347366842
    Empirical Dispersion Energy =           0.0000000000000000
    PCM Polarization Energy =               0.0000000000000000
    EFP Energy =                            0.0000000000000000
    Total Energy =                       -158.4563401387807176
    Molecular point group: c1
  Basis Set: CC-PVDZ
  Basis Set:
   => B3LYP Composite Functional <=

  -Total Gradient:
     Atom            X                  Y                   Z
    ------   -----------------  -----------------  -----------------
       1       -0.000018219398     0.000006455098    -0.000007932988
       2       -0.000002184608    -0.000007179481     0.000003547177
       3        0.000005278151     0.000003451696     0.000016103522
       4       -0.000748887287    -0.000431922784     0.002932677487
       5        0.000001840634     0.000000982797    -0.000009685566
       6        0.000014926273    -0.000005682202    -0.000034303580
       7        0.000262232872     0.000246858407    -0.003219029955
       8        0.000018328057     0.000021912609    -0.000025147836
       9        0.000006708967     0.000003481591    -0.000005721317
      10        0.002500038238     0.001119752821    -0.001727799285
      11       -0.000003230712     0.000004870523     0.000006114992
      12        0.000017850876    -0.000006819689     0.000008075001
      13       -0.000014938541    -0.000008382688     0.000001261402
      14       -0.002043094944    -0.000949436998     0.002067842319

  **** Optimization is complete! (in 7 steps) ****
    Final optimized geometry and variables:
    Molecular point group: c1

    Geometry (in Angstrom), charge = 0, multiplicity = 1:

    H           -2.307836313136     0.133518175605     0.143277266641
    H           -2.126799291511     1.773563323008    -0.527546149945
    H           -1.853859860929     0.352317223456    -1.562080789192
    C           -1.708063729262     0.754008936709    -0.544104246845
    H            0.344502734053     1.434748742673    -0.785031152419
    H           -0.146319304058     1.150628083789     0.882833425940
    C           -0.230873976371     0.744348400360    -0.142523349144
    H           -0.373910772595    -1.408034023750     0.048862680990
    H            0.760706572357    -0.887907678106    -1.194321402066
    C            0.407264905620    -0.657073872662    -0.173380458367
    H            1.990035240667    -1.841230521727     0.772487923265
    H            1.185536794208    -0.688820170820     1.866680171554
    H            2.356092937312    -0.103812762522     0.662611001536
    C            1.546105800453    -0.834142217089     0.834159611881

*** Psi4 exiting successfully. Buy a developer a beer!
