                               Psi4 1.1 release

  ==> Input File <==

--------------------------------------------------------------------------

memory 1000 mb

molecule butane {
  symmetry C1
  0 1
  H      1.604   0.760   -8.260
  H      1.745   2.388   -8.880
  H      2.043   1.024   -9.930
  C      2.142   1.395   -8.932
  H      4.169   2.051   -9.210
  H      3.731   1.788   -7.539
  C      3.631   1.416   -8.537
  H      3.665   -0.647   -7.940
  H      4.104   -0.384   -9.610
  C      4.203   -0.012   -8.612
  H      6.292   -0.184   -9.082
  H      5.876   -0.743   -7.480
  H      5.941   0.969   -7.818
  C      5.691   0.009   -8.218
  units Angstrom
}

dih_string = "7 10 14 13 10"
set optking fixed_dihedral = $dih_string

optimize('MP2/aug-cc-pvtz')
--------------------------------------------------------------------------

    Molecular point group: c1
  Charge       = 0
  Multiplicity = 1
  Basis Set: AUG-CC-PVTZ
    Blend: AUG-CC-PVTZ
  Basis Set: (AUG-CC-PVTZ AUX)
    Blend: AUG-CC-PVTZ-JKFIT
  @DF-RHF Final Energy:  -157.34755464072526
    Total Energy =                       -157.3475546407252637
  Basis Set: (AUG-CC-PVTZ AUX)
    Blend: AUG-CC-PVTZ-RI
    Molecular point group: c1
  Basis Set: AUG-CC-PVTZ
    Blend: AUG-CC-PVTZ
  Basis Set: (AUG-CC-PVTZ AUX)
    Blend: AUG-CC-PVTZ-JKFIT
  Basis Set: (AUG-CC-PVTZ AUX)
    Blend: AUG-CC-PVTZ-JKFIT
	 Reference Energy          =    -157.3475546407252637 [Eh]
	 Singles Energy            =      -0.0000000000000000 [Eh]
	 Same-Spin Energy          =      -0.1654797054444255 [Eh]
	 Opposite-Spin Energy      =      -0.6394452580325499 [Eh]
	 Correlation Energy        =      -0.8049249634769754 [Eh]
	 Total Energy              =    -158.1524796042022274 [Eh]
	 SCS Total Energy          =    -158.1700488521791215 [Eh]
  @DF-RHF Final Energy:  -157.35046971415287
    Total Energy =                       -157.3504697141528652
  @DF-RHF Final Energy:  -157.35137550155622
    Total Energy =                       -157.3513755015562197
  @DF-RHF Final Energy:  -157.35167470704644
    Total Energy =                       -157.3516747070464419
  @DF-RHF Final Energy:  -157.35166470014934
    Total Energy =                       -157.3516647001493425
  Charge       = 0
  Multiplicity = 1
  Basis Set: AUG-CC-PVTZ
    Blend: AUG-CC-PVTZ
  Basis Set: (AUG-CC-PVTZ AUX)
    Blend: AUG-CC-PVTZ-JKFIT

    Orbital Energies (a.u.)
    -----------------------

    Doubly Occupied:

       1A    -11.211678     2A    -11.210867     3A    -11.205878
       4A    -11.205520     5A     -1.072769     6A     -0.980351
       7A     -0.861983     8A     -0.788943     9A     -0.638796
      10A     -0.583905    11A     -0.577858    12A     -0.569236
      13A     -0.511660    14A     -0.496594    15A     -0.470458
      16A     -0.457065    17A     -0.455987

  @DF-RHF Final Energy:  -157.35167206441326

   => Energetics <=

    Nuclear Repulsion Energy =            131.2977307872305346
    One-Electron Energy =                -470.6997135917482638
    Two-Electron Energy =                 182.0503107401044645
    DFT Exchange-Correlation Energy =       0.0000000000000000
    Empirical Dispersion Energy =           0.0000000000000000
    PCM Polarization Energy =               0.0000000000000000
    EFP Energy =                            0.0000000000000000
    Total Energy =                       -157.3516720644132647
  Basis Set: (AUG-CC-PVTZ AUX)
    Blend: AUG-CC-PVTZ-RI
    Molecular point group: c1
  Basis Set: AUG-CC-PVTZ
    Blend: AUG-CC-PVTZ
  Basis Set: (AUG-CC-PVTZ AUX)
    Blend: AUG-CC-PVTZ-JKFIT
  Basis Set: (AUG-CC-PVTZ AUX)
    Blend: AUG-CC-PVTZ-JKFIT
	 Reference Energy          =    -157.3516720644132647 [Eh]
	 Singles Energy            =      -0.0000000000000001 [Eh]
	 Same-Spin Energy          =      -0.1654503095573646 [Eh]
	 Opposite-Spin Energy      =      -0.6398492027131397 [Eh]
	 Correlation Energy        =      -0.8052995122705044 [Eh]
	 Total Energy              =    -158.1569715766837589 [Eh]

	 ================> DF-SCS-MP2 Energies <==================
	-----------------------------------------------------------
	 SCS Same-Spin Scale       =       0.3333333333333333 [-]
	 SCS Opposite-Spin Scale   =       1.2000000000000000 [-]
	 SCS Same-Spin Energy      =      -0.0551501031857882 [Eh]
	 SCS Opposite-Spin Energy  =      -0.7678190432557677 [Eh]
	 SCS Correlation Energy    =      -0.8229691464415559 [Eh]
	 SCS Total Energy          =    -158.1746412108548157 [Eh]
	-----------------------------------------------------------

  -Total Gradient:
     Atom            X                  Y                   Z
    ------   -----------------  -----------------  -----------------
       1        0.000001097167     0.000008269335    -0.000015838009
       2        0.000000157518    -0.000015575828     0.000000146952
       3        0.000001053327     0.000003611505     0.000013445154
       4        0.000006488738     0.000001245315     0.000018688759
       5        0.000005971765    -0.000009848911     0.000017612503
       6        0.000005697428     0.000012305201    -0.000016962857
       7       -0.000371532181    -0.000216320771     0.001358950339
       8        0.000014489049    -0.000006915099    -0.000031078816
       9       -0.000014396772     0.000011774848     0.000003793008
      10        0.000627823511     0.000448374784    -0.002334545359
      11       -0.000027038022    -0.000010101842     0.000027987997
      12        0.000000804395     0.000017207418     0.000016744485
      13        0.000459337153     0.000611607783    -0.001802360167
      14       -0.000709953071    -0.000855633741     0.002743416010

  **** Optimization is complete! (in 6 steps) ****
    Final optimized geometry and variables:
    Molecular point group: c1

    Geometry (in Angstrom), charge = 0, multiplicity = 1:

    H           -2.354188033235     0.049953054695     0.292090835928
    H           -2.204011517113     1.697410025939    -0.309405604796
    H           -1.901449624188     0.335235899968    -1.382377010048
    C           -1.776679901441     0.698904968285    -0.364013089309
    H            0.250187084833     1.361074942656    -0.622964010742
    H           -0.200799990658     1.086110388855     1.043304900649
    C           -0.312889631651     0.693634732865     0.031696615185
    H           -0.259090487862    -1.341401240417     0.648283756772
    H            0.165795603877    -1.102666642432    -1.024327746930
    C            0.302823013028    -0.692424251885    -0.023975910614
    H            2.417385478211    -0.873992067778    -0.510843382167
    H            2.018160437814    -1.468027705843     1.089531719475
    H            2.081396414266     0.261723239431     0.770498290818
    C            1.785622344492    -0.700570641426     0.356813787305

*** Psi4 exiting successfully. Buy a developer a beer!
