                              Psi4 1.0.0 Driver

  ==> Input File <==

--------------------------------------------------------------------------

memory 1000 mb

molecule butane {
  symmetry C1
  0 1
  H      1.604   0.760   -8.260
  H      1.745   2.388   -8.880
  H      2.043   1.024   -9.930
  C      2.142   1.395   -8.932
  H      4.169   2.051   -9.210
  H      3.731   1.788   -7.539
  C      3.631   1.416   -8.537
  H      5.006   -0.037   -9.318
  H      4.567   -0.302   -7.649
  C      4.203   -0.012   -8.612
  H      3.495   -1.978   -9.109
  H      2.733   -0.697   -10.020
  H      2.293   -0.961   -8.351
  C      3.097   -0.986   -9.057
  units Angstrom
}

dih_string = "4 7 10 14 0.001"
set optking fixed_dihedral = $dih_string

optimize('MP2/6-31G(d)')
--------------------------------------------------------------------------

    Molecular point group: c1
  Charge       = 0
  Multiplicity = 1
  Basis Set: 6-31G(D)
  Basis Set:
  @DF-RHF Final Energy:  -157.27142556647459
    Total Energy =                       -157.2714255664745338
  Basis Set:
    Molecular point group: c1
  Basis Set: 6-31G(D)
  Basis Set:
  Basis Set:
	 Reference Energy          =    -157.2714255664745906 [Eh]
	 Singles Energy            =      -0.0000000000000000 [Eh]
	 Same-Spin Energy          =      -0.1253697037509469 [Eh]
	 Opposite-Spin Energy      =      -0.4216604363239234 [Eh]
	 Correlation Energy        =      -0.5470301400748703 [Eh]
	 Total Energy              =    -157.8184557065494573 [Eh]
	 SCS Total Energy          =    -157.8192079913136183 [Eh]
  Basis Set: 6-31G(D)
  Basis Set:
  @DF-RHF Final Energy:  -157.28249989089781
    Total Energy =                       -157.2824998908977250
  Basis Set:
  Basis Set: 6-31G(D)
  Basis Set:
  @DF-RHF Final Energy:  -157.28589675561159
    Total Energy =                       -157.2858967556115886
  @DF-RHF Final Energy:  -157.28732364695185
    Total Energy =                       -157.2873236469517053
  @DF-RHF Final Energy:  -157.28791146402236
    Total Energy =                       -157.2879114640223293
  @DF-RHF Final Energy:  -157.28796117996083
    Total Energy =                       -157.2879611799609734
	 Singles Energy            =      -0.0000000000000000 [Eh]
	 Same-Spin Energy          =      -0.1242318512429086 [Eh]
	 Opposite-Spin Energy      =      -0.4226186232259969 [Eh]
	 Correlation Energy        =      -0.5468504744689054 [Eh]
	 Total Energy              =    -157.8348116544297284 [Eh]
	 SCS Total Energy          =    -157.8365141449129965 [Eh]
  Charge       = 0
  Multiplicity = 1
  Basis Set: 6-31G(D)
  Basis Set:

    Orbital Energies (a.u.)
    -----------------------

    Doubly Occupied:

       1A    -11.216303     2A    -11.215773     3A    -11.209535
       4A    -11.209521     5A     -1.064783     6A     -0.974224
       7A     -0.876461     8A     -0.767465     9A     -0.633280
      10A     -0.612367    11A     -0.563702    12A     -0.538041
      13A     -0.523951    14A     -0.512147    15A     -0.462514
      16A     -0.456827    17A     -0.443284

  @DF-RHF Final Energy:  -157.28797992544162

   => Energetics <=

    Nuclear Repulsion Energy =            132.6615843594142916
    One-Electron Energy =                -473.3387727762560644
    Two-Electron Energy =                 183.3892084914001259
    DFT Exchange-Correlation Energy =       0.0000000000000000
    Empirical Dispersion Energy =           0.0000000000000000
    PCM Polarization Energy =               0.0000000000000000
    EFP Energy =                            0.0000000000000000
    Total Energy =                       -157.2879799254416469
  Basis Set:
    Molecular point group: c1
  Basis Set: 6-31G(D)
  Basis Set:
  Basis Set:
	 Reference Energy          =    -157.2879799254416184 [Eh]
	 Singles Energy            =      -0.0000000000000000 [Eh]
	 Same-Spin Energy          =      -0.1242217515437546 [Eh]
	 Opposite-Spin Energy      =      -0.4226122649803923 [Eh]
	 Correlation Energy        =      -0.5468340165241470 [Eh]
	 Total Energy              =    -157.8348139419657628 [Eh]

	 ================> DF-SCS-MP2 Energies <==================
	-----------------------------------------------------------
	 SCS Same-Spin Scale       =       0.3333333333333333 [-]
	 SCS Opposite-Spin Scale   =       1.2000000000000000 [-]
	 SCS Same-Spin Energy      =      -0.0414072505145849 [Eh]
	 SCS Opposite-Spin Energy  =      -0.5071347179764708 [Eh]
	 SCS Correlation Energy    =      -0.5485419684910556 [Eh]
	 SCS Total Energy          =    -157.8365218939326837 [Eh]
	-----------------------------------------------------------

  -Total Gradient:
     Atom            X                  Y                   Z
    ------   -----------------  -----------------  -----------------
       1       -0.000044399424    -0.000036208890     0.000016077151
       2       -0.000040695851     0.000019893880    -0.000005580498
       3       -0.000029874604    -0.000025121638    -0.000040278604
       4        0.000213688037    -0.000070982968     0.000033244181
       5        0.000026640154     0.000039036032     0.000001415845
       6        0.000024906119     0.000036199434     0.000018495737
       7       -0.000099842694    -0.000091655442    -0.000026508195
       8        0.000047323532    -0.000008285254     0.000001235599
       9        0.000040930855    -0.000012749337     0.000017886630
      10       -0.000130436787     0.000003125251    -0.000040114402
      11       -0.000015258713    -0.000041877418    -0.000009280838
      12       -0.000039792643     0.000000451853    -0.000039407361
      13       -0.000054099193    -0.000004417399     0.000017650454
      14        0.000100911214     0.000192591895     0.000055164298

  **** Optimization is complete! (in 7 steps) ****
    Final optimized geometry and variables:
    Molecular point group: c1

    Geometry (in Angstrom), charge = 0, multiplicity = 1:

    H           -1.761072495381     0.545958914093     0.595586630098
    H           -1.432396878925     2.167818102544    -0.013526982106
    H           -1.376826581439     0.789245123852    -1.111672647103
    C           -1.138594405251     1.117548257254    -0.097069383595
    H            0.908737309687     1.611723527558    -0.468041517294
    H            0.529695224330     1.371868673565     1.216588671850
    C            0.348911827178     0.965108938346     0.215968547655
    H            1.751453108158    -0.491299689895    -0.577745141188
    H            1.372123200454    -0.731226366553     1.106814571029
    C            0.925205476755    -0.473263111857     0.140841730534
    H            0.455762897672    -2.544842413135    -0.259681990729
    H           -0.493023976217    -1.416338046249    -1.227022116650
    H           -0.877559786608    -1.659252499731     0.480231304987
    C           -0.057995288032    -1.579466326871    -0.238033249009

*** Psi4 exiting successfully. Buy a developer a beer!
