                               Psi4 1.1 release

  ==> Input File <==

--------------------------------------------------------------------------

memory 5 Gb

molecule phepyrOH_cation {
  symmetry C1
  1 1
  C      1.885   -1.036   -0.112
  C      2.878   -1.652   2.002
  C      0.807   -0.463   0.561
  C      1.800   -1.079   2.676
  C      5.012   -1.414   -0.666
  C      4.145   -3.610   -0.187
  C      6.074   -2.011   -1.330
  C      5.229   -4.152   -0.863
  C      2.921   -1.631   0.608
  C      4.040   -2.225   -0.090
  C      0.764   -0.484   1.955
  N      6.151   -3.347   -1.409
  O      -0.288   0.076   2.612
  H      1.904   -1.012   -1.199
  H      3.678   -2.112   2.578
  H      0.003   -0.001   -0.006
  H      1.772   -1.098   3.762
  H      4.955   -0.331   -0.606
  H      3.401   -4.267   0.253
  H      6.874   -1.461   -1.806
  H      5.392   -5.213   -0.988
  H      6.939   -3.766   -1.902
  H      -0.175   -0.018   3.571
  units Angstrom
}

dih_string = "1 9 10 5 75"
set optking fixed_dihedral = $dih_string

optimize('MP2/aug-cc-PVTZ')
--------------------------------------------------------------------------

    Molecular point group: c1
  Charge       = 1
  Multiplicity = 1
  Basis Set: AUG-CC-PVTZ
    Blend: AUG-CC-PVTZ
  Basis Set: (AUG-CC-PVTZ AUX)
    Blend: AUG-CC-PVTZ-JKFIT
  @DF-RHF Final Energy:  -551.67018634657336
    Total Energy =                       -551.6701863465733595
  Basis Set: (AUG-CC-PVTZ AUX)
    Blend: AUG-CC-PVTZ-RI
    Molecular point group: c1
  Basis Set: AUG-CC-PVTZ
    Blend: AUG-CC-PVTZ
  Basis Set: (AUG-CC-PVTZ AUX)
    Blend: AUG-CC-PVTZ-JKFIT
  Basis Set: (AUG-CC-PVTZ AUX)
    Blend: AUG-CC-PVTZ-JKFIT
	 Reference Energy          =    -551.6701863465733595 [Eh]
	 Singles Energy            =      -0.0000000000000005 [Eh]
	 Same-Spin Energy          =      -0.5959479565672129 [Eh]
	 Opposite-Spin Energy      =      -1.8247752630911780 [Eh]
	 Correlation Energy        =      -2.4207232196583912 [Eh]
	 Total Energy              =    -554.0909095662317441 [Eh]
	 SCS Total Energy          =    -554.0585659811384858 [Eh]
  @DF-RHF Final Energy:  -551.67462181294059
    Total Energy =                       -551.6746218129405861
  @DF-RHF Final Energy:  -551.67536698979700
    Total Energy =                       -551.6753669897969985
  @DF-RHF Final Energy:  -551.67539510829124
    Total Energy =                       -551.6753951082912408
  @DF-RHF Final Energy:  -551.67535569926929
    Total Energy =                       -551.6753556992692893
  @DF-RHF Final Energy:  -551.67541415940775
    Total Energy =                       -551.6754141594077510
  Charge       = 1
  Multiplicity = 1
  Basis Set: AUG-CC-PVTZ
    Blend: AUG-CC-PVTZ
  Basis Set: (AUG-CC-PVTZ AUX)
    Blend: AUG-CC-PVTZ-JKFIT

    Orbital Energies (a.u.)
    -----------------------

    Doubly Occupied:

       1A    -20.695670     2A    -15.841697     3A    -11.487741
       4A    -11.487593     5A    -11.450925     6A    -11.419807
       7A    -11.417178     8A    -11.417149     9A    -11.369403
      10A    -11.367423    11A    -11.366050    12A    -11.348599
      13A    -11.341941    14A     -1.517906    15A     -1.517528
      16A     -1.317881    17A     -1.264048    18A     -1.245358
      19A     -1.152483    20A     -1.145848    21A     -1.068974
      22A     -1.058430    23A     -0.972804    24A     -0.968652
      25A     -0.947105    26A     -0.874471    27A     -0.859851
      28A     -0.852087    29A     -0.821081    30A     -0.805400
      31A     -0.789557    32A     -0.776519    33A     -0.751061
      34A     -0.729708    35A     -0.714505    36A     -0.710749
      37A     -0.700583    38A     -0.684450    39A     -0.650375
      40A     -0.617840    41A     -0.608300    42A     -0.574957
      43A     -0.543290    44A     -0.465160    45A     -0.434592

  @DF-RHF Final Energy:  -551.67540800172378

   => Energetics <=

    Nuclear Repulsion Energy =            712.6926864685123064
    One-Electron Energy =               -2148.4307384709868529
    Two-Electron Energy =                 884.0626440007506517
    DFT Exchange-Correlation Energy =       0.0000000000000000
    Empirical Dispersion Energy =           0.0000000000000000
    PCM Polarization Energy =               0.0000000000000000
    EFP Energy =                            0.0000000000000000
    Total Energy =                       -551.6754080017237811
  Basis Set: (AUG-CC-PVTZ AUX)
    Blend: AUG-CC-PVTZ-RI
    Molecular point group: c1
  Basis Set: AUG-CC-PVTZ
    Blend: AUG-CC-PVTZ
  Basis Set: (AUG-CC-PVTZ AUX)
    Blend: AUG-CC-PVTZ-JKFIT
  Basis Set: (AUG-CC-PVTZ AUX)
    Blend: AUG-CC-PVTZ-JKFIT
	 Reference Energy          =    -551.6754080017237811 [Eh]
	 Singles Energy            =      -0.0000000000000001 [Eh]
	 Same-Spin Energy          =      -0.5955019052790234 [Eh]
	 Opposite-Spin Energy      =      -1.8231304738756180 [Eh]
	 Correlation Energy        =      -2.4186323791546416 [Eh]
	 Total Energy              =    -554.0940403808783685 [Eh]

	 ================> DF-SCS-MP2 Energies <==================
	-----------------------------------------------------------
	 SCS Same-Spin Scale       =       0.3333333333333333 [-]
	 SCS Opposite-Spin Scale   =       1.2000000000000000 [-]
	 SCS Same-Spin Energy      =      -0.1985006350930078 [Eh]
	 SCS Opposite-Spin Energy  =      -2.1877565686507414 [Eh]
	 SCS Correlation Energy    =      -2.3862572037437491 [Eh]
	 SCS Total Energy          =    -554.0616652054675342 [Eh]
	-----------------------------------------------------------

  -Total Gradient:
     Atom            X                  Y                   Z
    ------   -----------------  -----------------  -----------------
       1       -0.002558785404    -0.004347788671    -0.000088517179
       2        0.000024179246     0.000037740943    -0.000014285402
       3        0.000005699044    -0.000001744842    -0.000009405538
       4       -0.000018152710    -0.000001719497     0.000008861475
       5        0.002776092823    -0.000087211682     0.004257170083
       6       -0.000008381224     0.000015579812    -0.000026006860
       7        0.000010949472     0.000006977551     0.000008679576
       8        0.000006078712    -0.000008748026    -0.000001837020
       9        0.005096751750     0.006375794150     0.002262422662
      10       -0.005328815979    -0.001983782660    -0.006402296061
      11        0.000036862694     0.000002207098    -0.000000442086
      12       -0.000013500278     0.000002948656     0.000001758277
      13       -0.000017931699     0.000003107984     0.000010577222
      14        0.000001796504    -0.000006151241     0.000008584699
      15       -0.000007736351    -0.000002324217    -0.000003472424
      16        0.000001396470     0.000000900581     0.000009498735
      17        0.000002767731    -0.000002283958    -0.000011625658
      18       -0.000001487739    -0.000013508302     0.000000871303
      19        0.000008235440     0.000004171201    -0.000002438735
      20       -0.000004007434    -0.000002850977    -0.000000839573
      21       -0.000000274390     0.000006102294     0.000000130126
      22       -0.000008786914     0.000002693886     0.000004104297
      23       -0.000002949765    -0.000000110071    -0.000011491912

  **** Optimization is complete! (in 7 steps) ****
    Final optimized geometry and variables:
    Molecular point group: c1

    Geometry (in Angstrom), charge = 1, multiplicity = 1:

    C           -1.262043380768     0.813333368993    -0.555853436920
    C           -0.296238489425     0.069757184743     1.520576935378
    C           -2.339935760096     1.337615688853     0.130883014740
    C           -1.366776583536     0.611735263800     2.210875831651
    C            1.861006784686     0.330427163365    -1.217691788632
    C            1.018435288028    -1.824377790386    -0.611488812981
    C            2.914576193394    -0.278666863679    -1.859459264841
    C            2.085184840246    -2.405638037464    -1.257205708529
    C           -0.221957458464     0.192852708966     0.135508928179
    C            0.874974193355    -0.435934372009    -0.594074320308
    C           -2.392928794847     1.246547780658     1.518183600185
    N            2.990478542329    -1.618685440414    -1.859089360558
    O           -3.469562480832     1.789574458737     2.121338783058
    H           -1.232034292422     0.882091032727    -1.633408535690
    H            0.492922953972    -0.427005716660     2.066071142819
    H           -3.154040029180     1.815664341645    -0.390721981265
    H           -1.405273126551     0.537028562951     3.288019946143
    H            1.803988058427     1.407032691356    -1.201343253213
    H            0.286395102510    -2.452289496708    -0.129356652142
    H            3.706031154517     0.254489712764    -2.359188244584
    H            2.246677035819    -3.468998292834    -1.317775050884
    H            3.771512357195    -2.057149754957    -2.331550856836
    H           -3.412563785242     1.674151925805     3.075830994707

*** Psi4 exiting successfully. Buy a developer a beer!
