                               Psi4 1.1 release

  ==> Input File <==

--------------------------------------------------------------------------

memory 5 Gb

molecule phepyrFOH_neutral {
  symmetry C1
  0 1
  C      1.885   -1.036   -0.112
  C      0.807   -0.463   0.561
  C      3.825   -3.269   -0.988
  C      5.328   -1.753   0.119
  C      1.800   -1.079   2.676
  C      4.927   -3.802   -1.637
  C      6.363   -2.354   -0.579
  C      2.921   -1.631   0.608
  C      4.038   -2.225   -0.095
  C      0.764   -0.484   1.955
  C      2.878   -1.652   2.002
  N      6.195   -3.370   -1.455
  O      -0.289   0.076   2.612
  F      3.866   -2.220   2.709
  H      1.904   -1.012   -1.199
  H      0.002   -0.002   -0.006
  H      2.833   -3.663   -1.183
  H      5.532   -0.940   0.809
  H      1.772   -1.099   3.762
  H      4.814   -4.616   -2.345
  H      7.387   -2.023   -0.446
  H      -0.502   0.941   2.229
  units Angstrom
}

dih_string = "2 10 13 22 315"
set optking fixed_dihedral = $dih_string

optimize('MP2/aug-cc-PVTZ')
--------------------------------------------------------------------------

    Molecular point group: c1
  Charge       = 0
  Multiplicity = 1
  Basis Set: AUG-CC-PVTZ
    Blend: AUG-CC-PVTZ
  Basis Set: (AUG-CC-PVTZ AUX)
    Blend: AUG-CC-PVTZ-JKFIT
  @DF-RHF Final Energy:  -650.17156446927345
    Total Energy =                       -650.1715644692733349
  Basis Set: (AUG-CC-PVTZ AUX)
    Blend: AUG-CC-PVTZ-RI
    Molecular point group: c1
  Basis Set: AUG-CC-PVTZ
    Blend: AUG-CC-PVTZ
  Basis Set: (AUG-CC-PVTZ AUX)
    Blend: AUG-CC-PVTZ-JKFIT
  Basis Set: (AUG-CC-PVTZ AUX)
    Blend: AUG-CC-PVTZ-JKFIT
	 Reference Energy          =    -650.1715644692734486 [Eh]
	 Singles Energy            =      -0.0000000000000002 [Eh]
	 Same-Spin Energy          =      -0.6773031104792456 [Eh]
	 Opposite-Spin Energy      =      -2.0189657670753807 [Eh]
	 Correlation Energy        =      -2.6962688775546262 [Eh]
	 Total Energy              =    -652.8678333468280925 [Eh]
	 SCS Total Energy          =    -652.8200910932570196 [Eh]
  @DF-RHF Final Energy:  -650.17769505310514
    Total Energy =                       -650.1776950531052535
  @DF-RHF Final Energy:  -650.17938658080243
    Total Energy =                       -650.1793865808024293
  @DF-RHF Final Energy:  -650.17950982850880
    Total Energy =                       -650.1795098285087988
  @DF-RHF Final Energy:  -650.17948777677691
    Total Energy =                       -650.1794877767770231
  @DF-RHF Final Energy:  -650.17953529439058
    Total Energy =                       -650.1795352943904618
    Molecular point group: c1
  Charge       = 0
  Multiplicity = 1
  Basis Set: AUG-CC-PVTZ
    Blend: AUG-CC-PVTZ
  Basis Set: (AUG-CC-PVTZ AUX)
    Blend: AUG-CC-PVTZ-JKFIT

    Orbital Energies (a.u.)
    -----------------------

    Doubly Occupied:

       1A    -26.320311     2A    -20.604176     3A    -15.563268
       4A    -11.344742     5A    -11.323115     6A    -11.273012
       7A    -11.272045     8A    -11.269156     9A    -11.264340
      10A    -11.257604    11A    -11.247845    12A    -11.246571
      13A    -11.239419    14A    -11.237856    15A     -1.638719
      16A     -1.420497    17A     -1.259677    18A     -1.185998
      19A     -1.112861    20A     -1.044525    21A     -1.034973
      22A     -1.023951    23A     -0.890822    24A     -0.879274
      25A     -0.853374    26A     -0.831195    27A     -0.776874
      28A     -0.736351    29A     -0.723143    30A     -0.706455
      31A     -0.694859    32A     -0.665727    33A     -0.664408
      34A     -0.655754    35A     -0.632243    36A     -0.621503
      37A     -0.606666    38A     -0.597194    39A     -0.569507
      40A     -0.548318    41A     -0.543856    42A     -0.530330
      43A     -0.515565    44A     -0.500322    45A     -0.418883
      46A     -0.398487    47A     -0.360835    48A     -0.348822
      49A     -0.327315

  @DF-RHF Final Energy:  -650.17961136935605

   => Energetics <=

    Nuclear Repulsion Energy =            813.5937693350988411
    One-Electron Energy =               -2501.9812764581829470
    Two-Electron Energy =                1038.2078957537280530
    DFT Exchange-Correlation Energy =       0.0000000000000000
    Empirical Dispersion Energy =           0.0000000000000000
    PCM Polarization Energy =               0.0000000000000000
    EFP Energy =                            0.0000000000000000
    Total Energy =                       -650.1796113693560528
  Basis Set: (AUG-CC-PVTZ AUX)
    Blend: AUG-CC-PVTZ-RI
    Molecular point group: c1

    Geometry (in Angstrom), charge = 0, multiplicity = 1:

       Center              X                  Y                   Z               Mass
    ------------   -----------------  -----------------  -----------------  -----------------
           C         -1.370803414808     0.633292852360    -0.758622187075    12.000000000000
           C         -2.457126062700     1.204379073443    -0.118177713740    12.000000000000
           C          0.631596458933    -1.413224390838    -1.757779756557    12.000000000000
           C          2.173450817771    -0.123992881673    -0.493280298696    12.000000000000
           C         -1.385564621987     0.828880246920     1.998502566618    12.000000000000
           C          1.712727183464    -1.950252945649    -2.438349126502    12.000000000000
           C          3.189308521701    -0.716117986515    -1.226262846214    12.000000000000
           C         -0.273079826514     0.140825727983    -0.053267889064    12.000000000000
           C          0.852425090301    -0.471376314522    -0.757501880091    12.000000000000
           C         -2.454407781035     1.319362178780     1.265575040306    12.000000000000
           C         -0.325702316743     0.254682357332     1.330063630102    12.000000000000
           N          2.981303825805    -1.617594677258    -2.189639383135    14.003074004780
           O         -3.520102070572     1.820776485211     1.962582228432    15.994914619560
           F          0.691682017297    -0.227424286121     2.069269566975    18.998403224000
           H         -1.362349587154     0.562677473152    -1.836332596628     1.007825032070
           H         -3.301810953626     1.561959815507    -0.687489987261     1.007825032070
           H         -0.372915239307    -1.731660891491    -1.994127945724     1.007825032070
           H          2.405914255551     0.602089796326     0.270396641367     1.007825032070
           H         -1.382589994708     0.891643313039     3.074240486081     1.007825032070
           H          1.553624777747    -2.685585009454    -3.215054906981     1.007825032070
           H          4.219736108159    -0.451813133377    -1.033704734154     1.007825032070
           H         -3.841745068571     2.611378030470     1.519347065839     1.007825032070

  Basis Set: AUG-CC-PVTZ
    Blend: AUG-CC-PVTZ
  Basis Set: (AUG-CC-PVTZ AUX)
    Blend: AUG-CC-PVTZ-JKFIT
  Basis Set: (AUG-CC-PVTZ AUX)
    Blend: AUG-CC-PVTZ-JKFIT
	 Reference Energy          =    -650.1796113693560528 [Eh]
	 Singles Energy            =      -0.0000000000000006 [Eh]
	 Same-Spin Energy          =      -0.6766181172540685 [Eh]
	 Opposite-Spin Energy      =      -2.0168558734296940 [Eh]
	 Correlation Energy        =      -2.6934739906837630 [Eh]
	 Total Energy              =    -652.8730853600397950 [Eh]

	 ================> DF-SCS-MP2 Energies <==================
	-----------------------------------------------------------
	 SCS Same-Spin Scale       =       0.3333333333333333 [-]
	 SCS Opposite-Spin Scale   =       1.2000000000000000 [-]
	 SCS Same-Spin Energy      =      -0.2255393724180228 [Eh]
	 SCS Opposite-Spin Energy  =      -2.4202270481156325 [Eh]
	 SCS Correlation Energy    =      -2.6457664205336560 [Eh]
	 SCS Total Energy          =    -652.8253777898896715 [Eh]
	-----------------------------------------------------------

  -Total Gradient:
     Atom            X                  Y                   Z
    ------   -----------------  -----------------  -----------------
       1        0.000074111896     0.000825004770    -0.000158136228
       2       -0.000954548393    -0.002291109772     0.000092351451
       3       -0.000081755181    -0.000823298436     0.000270040263
       4        0.000641976236     0.000514624618    -0.001353203144
       5        0.000290965789    -0.000170862158     0.000182190681
       6       -0.000060958044     0.000067586998     0.000035436962
       7       -0.000035620868     0.000150980515     0.000224516739
       8        0.000570067255    -0.000300364906     0.000128016040
       9       -0.000278092229     0.000365034047     0.000215762780
      10        0.001745528661     0.004083034074    -0.000007072910
      11       -0.000940599830    -0.000394505910    -0.000306450641
      12        0.000066804916    -0.000179286350    -0.000198785378
      13       -0.002834348375    -0.003659763216    -0.001919174796
      14        0.000151717055    -0.000255791636     0.001199650253
      15        0.000012018547    -0.000145322090    -0.000173433187
      16       -0.000102629475     0.000034936557    -0.000102584834
      17       -0.000176427113     0.000069096779    -0.000083868512
      18        0.000027032776     0.000174980316     0.000235139414
      19       -0.000001786661     0.000008702799     0.000147226770
      20       -0.000098630808    -0.000150837790    -0.000125748246
      21        0.000120187614     0.000084902436     0.000070902155
      22        0.001864986226     0.001992258353     0.001627224373

*** Psi4 exiting successfully. Buy a developer a beer!
