                               Psi4 1.1 release

  ==> Input File <==

--------------------------------------------------------------------------

memory 5 Gb

molecule phepyrOH_cation {
  symmetry C1
  1 1
  C      1.885   -1.036   -0.112
  C      2.878   -1.652   2.002
  C      0.807   -0.463   0.561
  C      1.800   -1.079   2.676
  C      3.889   -3.451   -0.732
  C      5.269   -1.573   -0.121
  C      4.979   -3.997   -1.394
  C      6.324   -2.167   -0.798
  C      2.921   -1.631   0.608
  C      4.040   -2.225   -0.090
  C      0.764   -0.484   1.955
  N      6.151   -3.348   -1.407
  O      -0.288   0.076   2.612
  H      1.904   -1.012   -1.199
  H      3.678   -2.112   2.578
  H      0.003   -0.001   -0.006
  H      1.772   -1.098   3.762
  H      2.941   -3.982   -0.725
  H      5.415   -0.616   0.372
  H      4.953   -4.942   -1.919
  H      7.312   -1.734   -0.873
  H      6.940   -3.768   -1.898
  H      -0.175   -0.018   3.571
  units Angstrom
}

dih_string = "1 9 10 5 285"
set optking fixed_dihedral = $dih_string

optimize('MP2/aug-cc-PVTZ')
--------------------------------------------------------------------------

    Molecular point group: c1
  Charge       = 1
  Multiplicity = 1
  Basis Set: AUG-CC-PVTZ
    Blend: AUG-CC-PVTZ
  Basis Set: (AUG-CC-PVTZ AUX)
    Blend: AUG-CC-PVTZ-JKFIT
  @DF-RHF Final Energy:  -551.67020924521057
    Total Energy =                       -551.6702092452105717
  Basis Set: (AUG-CC-PVTZ AUX)
    Blend: AUG-CC-PVTZ-RI
    Molecular point group: c1
  Basis Set: AUG-CC-PVTZ
    Blend: AUG-CC-PVTZ
  Basis Set: (AUG-CC-PVTZ AUX)
    Blend: AUG-CC-PVTZ-JKFIT
  Basis Set: (AUG-CC-PVTZ AUX)
    Blend: AUG-CC-PVTZ-JKFIT
	 Reference Energy          =    -551.6702092452105717 [Eh]
	 Singles Energy            =      -0.0000000000000001 [Eh]
	 Same-Spin Energy          =      -0.5959467602782957 [Eh]
	 Opposite-Spin Energy      =      -1.8247601298875196 [Eh]
	 Correlation Energy        =      -2.4207068901658153 [Eh]
	 Total Energy              =    -554.0909161353763466 [Eh]
	 SCS Total Energy          =    -554.0585703211683040 [Eh]
  @DF-RHF Final Energy:  -551.67462921571132
    Total Energy =                       -551.6746292157113203
  @DF-RHF Final Energy:  -551.67536803147755
    Total Energy =                       -551.6753680314775465
  @DF-RHF Final Energy:  -551.67539648454078
    Total Energy =                       -551.6753964845407836
  @DF-RHF Final Energy:  -551.67535525494429
    Total Energy =                       -551.6753552549442929
  @DF-RHF Final Energy:  -551.67541341996321
    Total Energy =                       -551.6754134199632063
  Charge       = 1
  Multiplicity = 1
  Basis Set: AUG-CC-PVTZ
    Blend: AUG-CC-PVTZ
  Basis Set: (AUG-CC-PVTZ AUX)
    Blend: AUG-CC-PVTZ-JKFIT

    Orbital Energies (a.u.)
    -----------------------

    Doubly Occupied:

       1A    -20.695674     2A    -15.841696     3A    -11.487740
       4A    -11.487593     5A    -11.450925     6A    -11.419814
       7A    -11.417176     8A    -11.417147     9A    -11.369403
      10A    -11.367423    11A    -11.366051    12A    -11.348601
      13A    -11.341945    14A     -1.517910    15A     -1.517526
      16A     -1.317880    17A     -1.264047    18A     -1.245355
      19A     -1.152482    20A     -1.145848    21A     -1.068974
      22A     -1.058430    23A     -0.972806    24A     -0.968651
      25A     -0.947106    26A     -0.874469    27A     -0.859850
      28A     -0.852090    29A     -0.821083    30A     -0.805398
      31A     -0.789558    32A     -0.776519    33A     -0.751064
      34A     -0.729710    35A     -0.714507    36A     -0.710747
      37A     -0.700586    38A     -0.684452    39A     -0.650379
      40A     -0.617842    41A     -0.608302    42A     -0.574955
      43A     -0.543288    44A     -0.465161    45A     -0.434591

  @DF-RHF Final Energy:  -551.67540785183235

   => Energetics <=

    Nuclear Repulsion Energy =            712.6920231050881966
    One-Electron Energy =               -2148.4293529781161851
    Two-Electron Energy =                 884.0619220211957554
    DFT Exchange-Correlation Energy =       0.0000000000000000
    Empirical Dispersion Energy =           0.0000000000000000
    PCM Polarization Energy =               0.0000000000000000
    EFP Energy =                            0.0000000000000000
    Total Energy =                       -551.6754078518323468
  Basis Set: (AUG-CC-PVTZ AUX)
    Blend: AUG-CC-PVTZ-RI
    Molecular point group: c1
  Basis Set: AUG-CC-PVTZ
    Blend: AUG-CC-PVTZ
  Basis Set: (AUG-CC-PVTZ AUX)
    Blend: AUG-CC-PVTZ-JKFIT
  Basis Set: (AUG-CC-PVTZ AUX)
    Blend: AUG-CC-PVTZ-JKFIT
	 Reference Energy          =    -551.6754078518323468 [Eh]
	 Singles Energy            =      -0.0000000000000003 [Eh]
	 Same-Spin Energy          =      -0.5955019201335828 [Eh]
	 Opposite-Spin Energy      =      -1.8231305388837564 [Eh]
	 Correlation Energy        =      -2.4186324590173398 [Eh]
	 Total Energy              =    -554.0940403108496639 [Eh]

	 ================> DF-SCS-MP2 Energies <==================
	-----------------------------------------------------------
	 SCS Same-Spin Scale       =       0.3333333333333333 [-]
	 SCS Opposite-Spin Scale   =       1.2000000000000000 [-]
	 SCS Same-Spin Energy      =      -0.1985006400445276 [Eh]
	 SCS Opposite-Spin Energy  =      -2.1877566466605076 [Eh]
	 SCS Correlation Energy    =      -2.3862572867050358 [Eh]
	 SCS Total Energy          =    -554.0616651385373643 [Eh]
	-----------------------------------------------------------

  -Total Gradient:
     Atom            X                  Y                   Z
    ------   -----------------  -----------------  -----------------
       1        0.002314272535     0.004481026370     0.000194531037
       2       -0.000011953641    -0.000041553883    -0.000019080440
       3        0.000004148001    -0.000005403762    -0.000020751582
       4       -0.000014187689     0.000016143675     0.000011344934
       5        0.001431726731    -0.002517521935     0.004182948288
       6       -0.000013426804     0.000003089386    -0.000020959495
       7        0.000002026879    -0.000013039211     0.000009283936
       8        0.000011122432     0.000000151417    -0.000006104342
       9       -0.002743037517    -0.007826952047     0.001804355262
      10       -0.000988843775     0.005888590226    -0.006151278585
      11        0.000020315390    -0.000019058307     0.000008028179
      12       -0.000006518164     0.000009017594     0.000000870750
      13       -0.000012415927     0.000008593020     0.000009418630
      14        0.000008389313     0.000000332634     0.000014014585
      15       -0.000003456890     0.000009619568    -0.000007772411
      16       -0.000000631692    -0.000000651878     0.000011220203
      17        0.000003615087    -0.000000610550    -0.000009280115
      18        0.000012023482     0.000012084404     0.000001153053
      19       -0.000000664245    -0.000012874715    -0.000005183990
      20        0.000000351602     0.000005073748    -0.000002034879
      21       -0.000004503407    -0.000003359916     0.000000065052
      22       -0.000006350198     0.000005133440     0.000003828914
      23       -0.000002001503     0.000002170729    -0.000008616975

  **** Optimization is complete! (in 7 steps) ****
    Final optimized geometry and variables:
    Molecular point group: c1

    Geometry (in Angstrom), charge = 1, multiplicity = 1:

    C           -1.345131260018     0.662576398120    -0.561173046200
    C           -0.259229214155     0.137656666202     1.522688886221
    C           -2.382055123434     1.261439151992     0.127650180908
    C           -1.307317622222     0.720673012381     2.214008783337
    C            0.746453707041    -1.688721286604    -1.283286459252
    C            2.102566275196     0.138614395822    -0.546826893582
    C            1.841030861515    -2.223942626593    -1.922286384183
    C            3.180733943871    -0.422332520674    -1.191553172173
    C           -0.285278588384     0.078270230634     0.131692525939
    C            0.851495333393    -0.478763810520    -0.595220001305
    C           -2.371822707643     1.285651809638     1.518713786015
    N            3.014631573429    -1.576040879018    -1.856745603912
    O           -3.421648677104     1.877550873032     2.123134006233
    H           -1.357304331667     0.654245938064    -1.641220131946
    H            0.566356486701    -0.292870062523     2.070535652029
    H           -3.205725855275     1.721879445541    -0.394771639387
    H           -1.294571038046     0.739341362101     3.294190704482
    H           -0.194799677370    -2.213420448175    -1.319454932876
    H            2.229870899481     1.067253096665    -0.013908556075
    H            1.826000426264    -3.151605413269    -2.469645302288
    H            4.167708416630     0.009214025241    -1.203061474190
    H            3.814913305056    -1.979922962161    -2.327821663409
    H           -3.320218767502     1.843120810499     3.080294897304

*** Psi4 exiting successfully. Buy a developer a beer!
