                               Psi4 1.1 release

  ==> Input File <==

--------------------------------------------------------------------------

memory 5 Gb

molecule phepyrFOH_neutral {
  symmetry C1
  0 1
  C      1.885   -1.036   -0.112
  C      0.807   -0.463   0.561
  C      3.825   -3.269   -0.988
  C      5.328   -1.753   0.119
  C      1.800   -1.079   2.676
  C      4.927   -3.802   -1.637
  C      6.363   -2.354   -0.579
  C      2.921   -1.631   0.608
  C      4.038   -2.225   -0.095
  C      0.764   -0.484   1.955
  C      2.878   -1.652   2.002
  N      6.195   -3.370   -1.455
  O      -0.289   0.076   2.612
  F      3.866   -2.220   2.709
  H      1.904   -1.012   -1.199
  H      0.002   -0.002   -0.006
  H      2.833   -3.663   -1.183
  H      5.532   -0.940   0.809
  H      1.772   -1.099   3.762
  H      4.814   -4.616   -2.345
  H      7.387   -2.023   -0.446
  H      -0.301   -0.216   3.537
  units Angstrom
}

dih_string = "2 10 13 22 165"
set optking fixed_dihedral = $dih_string

optimize('MP2/aug-cc-PVTZ')
--------------------------------------------------------------------------

    Molecular point group: c1
  Charge       = 0
  Multiplicity = 1
  Basis Set: AUG-CC-PVTZ
    Blend: AUG-CC-PVTZ
  Basis Set: (AUG-CC-PVTZ AUX)
    Blend: AUG-CC-PVTZ-JKFIT
  @DF-RHF Final Energy:  -650.17334522018382
    Total Energy =                       -650.1733452201838190
  Basis Set: (AUG-CC-PVTZ AUX)
    Blend: AUG-CC-PVTZ-RI
    Molecular point group: c1
  Basis Set: AUG-CC-PVTZ
    Blend: AUG-CC-PVTZ
  Basis Set: (AUG-CC-PVTZ AUX)
    Blend: AUG-CC-PVTZ-JKFIT
  Basis Set: (AUG-CC-PVTZ AUX)
    Blend: AUG-CC-PVTZ-JKFIT
	 Reference Energy          =    -650.1733452201838190 [Eh]
	 Singles Energy            =      -0.0000000000000002 [Eh]
	 Same-Spin Energy          =      -0.6774938078664450 [Eh]
	 Opposite-Spin Energy      =      -2.0193504527588257 [Eh]
	 Correlation Energy        =      -2.6968442606252707 [Eh]
	 Total Energy              =    -652.8701894808091311 [Eh]
	 SCS Total Energy          =    -652.8223970327832149 [Eh]
  @DF-RHF Final Energy:  -650.17956919401126
    Total Energy =                       -650.1795691940112647
  @DF-RHF Final Energy:  -650.18135855355979
    Total Energy =                       -650.1813585535596758
    Molecular point group: c1
  Charge       = 0
  Multiplicity = 1
  Basis Set: AUG-CC-PVTZ
    Blend: AUG-CC-PVTZ
  Basis Set: (AUG-CC-PVTZ AUX)
    Blend: AUG-CC-PVTZ-JKFIT

    Orbital Energies (a.u.)
    -----------------------

    Doubly Occupied:

       1A    -26.322461     2A    -20.609457     3A    -15.562866
       4A    -11.346360     5A    -11.326064     6A    -11.272587
       7A    -11.271686     8A    -11.267826     9A    -11.262595
      10A    -11.254216    11A    -11.251078    12A    -11.241302
      13A    -11.238760    14A    -11.237401    15A     -1.641285
      16A     -1.426967    17A     -1.259368    18A     -1.185252
      19A     -1.112176    20A     -1.044151    21A     -1.034653
      22A     -1.024127    23A     -0.893041    24A     -0.877376
      25A     -0.856268    26A     -0.828029    27A     -0.773676
      28A     -0.746576    29A     -0.726733    30A     -0.708945
      31A     -0.694885    32A     -0.666331    33A     -0.662647
      34A     -0.642490    35A     -0.636298    36A     -0.619761
      37A     -0.609974    38A     -0.597332    39A     -0.578581
      40A     -0.546099    41A     -0.541903    42A     -0.535248
      43A     -0.520516    44A     -0.498312    45A     -0.418157
      46A     -0.393256    47A     -0.361800    48A     -0.348136
      49A     -0.325713

  @DF-RHF Final Energy:  -650.18148201720987

   => Energetics <=

    Nuclear Repulsion Energy =            813.9578010235841248
    One-Electron Energy =               -2502.6771188259235714
    Two-Electron Energy =                1038.5378357851295732
    DFT Exchange-Correlation Energy =       0.0000000000000000
    Empirical Dispersion Energy =           0.0000000000000000
    PCM Polarization Energy =               0.0000000000000000
    EFP Energy =                            0.0000000000000000
    Total Energy =                       -650.1814820172098734
  Basis Set: (AUG-CC-PVTZ AUX)
    Blend: AUG-CC-PVTZ-RI
    Molecular point group: c1

    Geometry (in Angstrom), charge = 0, multiplicity = 1:

       Center              X                  Y                   Z               Mass
    ------------   -----------------  -----------------  -----------------  -----------------
           C         -1.358744544022     0.706475863177    -0.756307677359    12.000000000000
           C         -2.438465098340     1.270572324461    -0.100425170609    12.000000000000
           C          0.651299119050    -1.449153158000    -1.717217715591    12.000000000000
           C          2.159116129254    -0.034363608152    -0.549088175129    12.000000000000
           C         -1.402895256576     0.753407891884     2.005679682250    12.000000000000
           C          1.744042843457    -1.980705231204    -2.384959248764    12.000000000000
           C          3.188285935373    -0.626648300214    -1.263541961174    12.000000000000
           C         -0.281634688810     0.153728401673    -0.065896168147    12.000000000000
           C          0.850818569263    -0.448359760725    -0.773260799775    12.000000000000
           C         -2.457948911119     1.297431354367     1.286509810623    12.000000000000
           C         -0.344091029901     0.196619492688     1.319332239044    12.000000000000
           N          3.001248937498    -1.587293724036    -2.172330713638    14.003074004780
           O         -3.535405366883     1.870825716092     1.890161394932    15.994914619560
           F          0.658897244414    -0.336454081254     2.039742412488    18.998403224000
           H         -1.339502004107     0.691301772070    -1.835956736682     1.007825032070
           H         -3.264272988570     1.695377585462    -0.647809525771     1.007825032070
           H         -0.344536141520    -1.811486293023    -1.924832648481     1.007825032070
           H          2.370414632244     0.741394459256     0.170925565607     1.007825032070
           H         -1.391303495113     0.756186512031     3.084947311349     1.007825032070
           H          1.604525032996    -2.761371788963    -3.119989332395     1.007825032070
           H          4.210418448248    -0.313922014993    -1.102733460850     1.007825032070
           H         -3.546034982517     1.624970025519     2.820036021197     1.007825032070

  Basis Set: AUG-CC-PVTZ
    Blend: AUG-CC-PVTZ
  Basis Set: (AUG-CC-PVTZ AUX)
    Blend: AUG-CC-PVTZ-JKFIT
  Basis Set: (AUG-CC-PVTZ AUX)
    Blend: AUG-CC-PVTZ-JKFIT
	 Reference Energy          =    -650.1814820172098734 [Eh]
	 Singles Energy            =      -0.0000000000000007 [Eh]
	 Same-Spin Energy          =      -0.6764973892675501 [Eh]
	 Opposite-Spin Energy      =      -2.0166434059880975 [Eh]
	 Correlation Energy        =      -2.6931407952556485 [Eh]
	 Total Energy              =    -652.8746228124655318 [Eh]

	 ================> DF-SCS-MP2 Energies <==================
	-----------------------------------------------------------
	 SCS Same-Spin Scale       =       0.3333333333333333 [-]
	 SCS Opposite-Spin Scale   =       1.2000000000000000 [-]
	 SCS Same-Spin Energy      =      -0.2254991297558500 [Eh]
	 SCS Opposite-Spin Energy  =      -2.4199720871857169 [Eh]
	 SCS Correlation Energy    =      -2.6454712169415679 [Eh]
	 SCS Total Energy          =    -652.8269532341514605 [Eh]
	-----------------------------------------------------------

  -Total Gradient:
     Atom            X                  Y                   Z
    ------   -----------------  -----------------  -----------------
       1        0.001179793847     0.000888668493     0.000095354629
       2       -0.001109781253    -0.000809236553     0.000345755970
       3        0.000148800813    -0.000904980836     0.001166662710
       4       -0.000015253098     0.000817371229    -0.001145558267
       5        0.000788041281    -0.000361386123    -0.000055723736
       6        0.000257936921    -0.000115605626    -0.000094035794
       7        0.000284805310     0.000054512209     0.000085423180
       8       -0.001381592607     0.000553675707    -0.000385171266
       9        0.000677125353    -0.000349888618    -0.000625204292
      10        0.000745027882     0.001343451728    -0.000407411152
      11       -0.000083010599    -0.001315858172     0.001245232627
      12       -0.000339492912    -0.000051426820     0.000032089977
      13        0.000740014650     0.001367251777     0.000458744937
      14       -0.000563511601     0.000202345773    -0.000039809271
      15       -0.000146537522    -0.000103791157    -0.000045634926
      16        0.000061022521    -0.000024732347    -0.000156368597
      17       -0.000074405681     0.000160824861    -0.000210115956
      18        0.000001207092     0.000198064519     0.000087681714
      19       -0.000218451955     0.000097300355     0.000073062346
      20       -0.000014916296    -0.000143680492    -0.000109443670
      21        0.000050478659     0.000024024416     0.000009825715
      22       -0.000987300812    -0.001526904323    -0.000325356882

*** Psi4 exiting successfully. Buy a developer a beer!
