                               Psi4 1.1 release

  ==> Input File <==

--------------------------------------------------------------------------

memory 5 Gb

molecule phepyrOH_cation {
  symmetry C1
  1 1
  C      1.885   -1.036   -0.112
  C      2.878   -1.652   2.002
  C      0.807   -0.463   0.561
  C      1.800   -1.079   2.676
  C      4.440   -1.719   -1.322
  C      4.716   -3.305   0.469
  C      5.516   -2.309   -1.970
  C      5.786   -3.855   -0.224
  C      2.921   -1.631   0.608
  C      4.040   -2.225   -0.090
  C      0.764   -0.484   1.955
  N      6.150   -3.348   -1.409
  O      -0.288   0.076   2.612
  H      1.904   -1.012   -1.199
  H      3.678   -2.112   2.578
  H      0.003   -0.001   -0.006
  H      1.772   -1.098   3.762
  H      3.931   -0.877   -1.782
  H      4.425   -3.721   1.429
  H      5.897   -1.982   -2.928
  H      6.368   -4.693   0.134
  H      6.938   -3.767   -1.902
  H      -0.502   0.942   2.229
  units Angstrom
}

dih_string = "3 11 13 23 315"
set optking fixed_dihedral = $dih_string

optimize('MP2/aug-cc-PVTZ')
--------------------------------------------------------------------------

    Molecular point group: c1
  Charge       = 1
  Multiplicity = 1
  Basis Set: AUG-CC-PVTZ
    Blend: AUG-CC-PVTZ
  Basis Set: (AUG-CC-PVTZ AUX)
    Blend: AUG-CC-PVTZ-JKFIT
  @DF-RHF Final Energy:  -551.67305807229013
    Total Energy =                       -551.6730580722901323
  Basis Set: (AUG-CC-PVTZ AUX)
    Blend: AUG-CC-PVTZ-RI
    Molecular point group: c1
  Basis Set: AUG-CC-PVTZ
    Blend: AUG-CC-PVTZ
  Basis Set: (AUG-CC-PVTZ AUX)
    Blend: AUG-CC-PVTZ-JKFIT
  Basis Set: (AUG-CC-PVTZ AUX)
    Blend: AUG-CC-PVTZ-JKFIT
	 Reference Energy          =    -551.6730580722901323 [Eh]
	 Singles Energy            =      -0.0000000000000003 [Eh]
	 Same-Spin Energy          =      -0.5964154393786373 [Eh]
	 Opposite-Spin Energy      =      -1.8250182131898622 [Eh]
	 Correlation Energy        =      -2.4214336525685001 [Eh]
	 Total Energy              =    -554.0944917248585853 [Eh]
	 SCS Total Energy          =    -554.0618850745775035 [Eh]
  @DF-RHF Final Energy:  -551.67818016533317
    Total Energy =                       -551.6781801653331740
  @DF-RHF Final Energy:  -551.67933064035515
    Total Energy =                       -551.6793306403551469
  @DF-RHF Final Energy:  -551.67942525823105
    Total Energy =                       -551.6794252582310492
  @DF-RHF Final Energy:  -551.67941259093720
    Total Energy =                       -551.6794125909372042
  @DF-RHF Final Energy:  -551.67942416715903
    Total Energy =                       -551.6794241671590271
  @DF-RHF Final Energy:  -551.67943673808941
    Total Energy =                       -551.6794367380894073
  @DF-RHF Final Energy:  -551.67921463611412
    Total Energy =                       -551.6792146361141249
  @DF-RHF Final Energy:  -551.67939372694036
    Total Energy =                       -551.6793937269403614
  @DF-RHF Final Energy:  -551.67941149326100
    Total Energy =                       -551.6794114932610000
  @DF-RHF Final Energy:  -551.67907445279150
    Total Energy =                       -551.6790744527914967
  @DF-RHF Final Energy:  -551.67936421085824
    Total Energy =                       -551.6793642108582389
  @DF-RHF Final Energy:  -551.67937903171128
    Total Energy =                       -551.6793790317112780
  @DF-RHF Final Energy:  -551.67940244515762
    Total Energy =                       -551.6794024451576206
  @DF-RHF Final Energy:  -551.67940254940504
    Total Energy =                       -551.6794025494050402
  @DF-RHF Final Energy:  -551.67932488082079
    Total Energy =                       -551.6793248808207863
  @DF-RHF Final Energy:  -551.67937686483401
    Total Energy =                       -551.6793768648340119
  @DF-RHF Final Energy:  -551.67940054309565
    Total Energy =                       -551.6794005430956531
  @DF-RHF Final Energy:  -551.67941436254773
    Total Energy =                       -551.6794143625477318
  Charge       = 1
  Multiplicity = 1
  Basis Set: AUG-CC-PVTZ
    Blend: AUG-CC-PVTZ
  Basis Set: (AUG-CC-PVTZ AUX)
    Blend: AUG-CC-PVTZ-JKFIT

    Orbital Energies (a.u.)
    -----------------------

    Doubly Occupied:

       1A    -20.700062     2A    -15.828190     3A    -11.479933
       4A    -11.479727     5A    -11.450254     6A    -11.431322
       7A    -11.409953     8A    -11.409721     9A    -11.378956
      10A    -11.376907    11A    -11.374971    12A    -11.355241
      13A    -11.350222    14A     -1.521948    15A     -1.507141
      16A     -1.319209    17A     -1.266723    18A     -1.237957
      19A     -1.157253    20A     -1.155736    21A     -1.062921
      22A     -1.057977    23A     -0.975668    24A     -0.962223
      25A     -0.954195    26A     -0.870457    27A     -0.862144
      28A     -0.855638    29A     -0.819557    30A     -0.800574
      31A     -0.781412    32A     -0.771143    33A     -0.758351
      34A     -0.742417    35A     -0.726096    36A     -0.711774
      37A     -0.702184    38A     -0.666153    39A     -0.658897
      40A     -0.644053    41A     -0.609147    42A     -0.570970
      43A     -0.539335    44A     -0.472903    45A     -0.441976

  @DF-RHF Final Energy:  -551.67940193815321

   => Energetics <=

    Nuclear Repulsion Energy =            713.2787024655883670
    One-Electron Energy =               -2149.4970297223035232
    Two-Electron Energy =                 884.5389253185619509
    DFT Exchange-Correlation Energy =       0.0000000000000000
    Empirical Dispersion Energy =           0.0000000000000000
    PCM Polarization Energy =               0.0000000000000000
    EFP Energy =                            0.0000000000000000
    Total Energy =                       -551.6794019381532053
  Basis Set: (AUG-CC-PVTZ AUX)
    Blend: AUG-CC-PVTZ-RI
    Molecular point group: c1
  Basis Set: AUG-CC-PVTZ
    Blend: AUG-CC-PVTZ
  Basis Set: (AUG-CC-PVTZ AUX)
    Blend: AUG-CC-PVTZ-JKFIT
  Basis Set: (AUG-CC-PVTZ AUX)
    Blend: AUG-CC-PVTZ-JKFIT
	 Reference Energy          =    -551.6794019381532053 [Eh]
	 Singles Energy            =      -0.0000000000000003 [Eh]
	 Same-Spin Energy          =      -0.5956702118276556 [Eh]
	 Opposite-Spin Energy      =      -1.8232513172849361 [Eh]
	 Correlation Energy        =      -2.4189215291125921 [Eh]
	 Total Energy              =    -554.0983234672658000 [Eh]

	 ================> DF-SCS-MP2 Energies <==================
	-----------------------------------------------------------
	 SCS Same-Spin Scale       =       0.3333333333333333 [-]
	 SCS Opposite-Spin Scale   =       1.2000000000000000 [-]
	 SCS Same-Spin Energy      =      -0.1985567372758852 [Eh]
	 SCS Opposite-Spin Energy  =      -2.1879015807419231 [Eh]
	 SCS Correlation Energy    =      -2.3864583180178087 [Eh]
	 SCS Total Energy          =    -554.0658602561710495 [Eh]
	-----------------------------------------------------------

  -Total Gradient:
     Atom            X                  Y                   Z
    ------   -----------------  -----------------  -----------------
       1        0.000149040414    -0.000013151199     0.000090914887
       2       -0.000002883884    -0.000014280456    -0.000182470209
       3       -0.001523205228    -0.003460449754    -0.000119223096
       4        0.000043072204    -0.000052144995    -0.000106729207
       5       -0.000057424823     0.000038739027     0.000210757293
       6       -0.000190620909     0.000088384838    -0.000059733625
       7        0.000000800079    -0.000079096082     0.000184630463
       8       -0.000108493204     0.000123189982    -0.000103814603
       9       -0.000048465733    -0.000000855299    -0.000034295649
      10        0.000133513179    -0.000105169359    -0.000067083854
      11        0.003052122908     0.006123199587     0.001134381871
      12        0.000051463614    -0.000008315514    -0.000059858215
      13       -0.004460770806    -0.004788358249    -0.003830535232
      14       -0.000049486563     0.000024553558    -0.000015343714
      15       -0.000001307665     0.000011215931     0.000074698651
      16       -0.000029228964    -0.000038518092    -0.000017043694
      17       -0.000045916892    -0.000061189001     0.000071549035
      18        0.000023666662     0.000023746204    -0.000079819422
      19        0.000068500360    -0.000047349688     0.000040023638
      20       -0.000009072043    -0.000034339252    -0.000042996438
      21        0.000052948275     0.000002207349     0.000015395468
      22        0.000072831676    -0.000038416498    -0.000045540763
      23        0.002878917331     0.002306396969     0.002942136430

  **** Optimization is complete! (in 20 steps) ****
    Final optimized geometry and variables:
    Molecular point group: c1

    Geometry (in Angstrom), charge = 1, multiplicity = 1:

    C           -1.258723795814     0.772167679106    -0.562062079432
    C           -0.316985008380     0.088152405479     1.543989525245
    C           -2.334338243668     1.329322636596     0.099418999726
    C           -1.374931274048     0.672237857033     2.208698605349
    C            1.295201749181    -0.007801202815    -1.803847845657
    C            1.593017852938    -1.539649414906     0.002514147792
    C            2.352037580995    -0.593637471121    -2.453229370965
    C            2.647776315726    -2.102137165819    -0.670383772310
    C           -0.235356409112     0.136945106801     0.148362140043
    C            0.878593560737    -0.466636797513    -0.547057441897
    C           -2.383771380445     1.308432093904     1.491535841603
    N            2.997986526771    -1.618873764313    -1.873797174245
    O           -3.443910958290     1.776758881030     2.188582068431
    H           -1.255315464728     0.776257854670    -1.641652777545
    H            0.473018871105    -0.364619498909     2.123916201985
    H           -3.144864772312     1.774178099032    -0.457878488589
    H           -1.435508067961     0.655487364232     3.285439400228
    H            0.812262458457     0.833642109487    -2.272554898670
    H            1.309981963505    -1.963835582246     0.951604919297
    H            2.713131078778    -0.271160081279    -3.415595762825
    H            3.220834807193    -2.932540435875    -0.292742561687
    H            3.776835972065    -2.042499535768    -2.361397519196
    H           -3.737974821394     2.623576133107     1.835900562702

*** Psi4 exiting successfully. Buy a developer a beer!
