                              Psi4 1.0.0 Driver

  ==> Input File <==

--------------------------------------------------------------------------

memory 1000 mb

molecule butane {
  symmetry C1
  0 1
  H      1.604   0.760   -8.260
  H      1.745   2.388   -8.880
  H      2.043   1.024   -9.930
  C      2.142   1.395   -8.932
  H      4.169   2.051   -9.210
  H      3.731   1.788   -7.539
  C      3.631   1.416   -8.537
  H      4.242   -0.432   -7.629
  H      3.575   -0.616   -9.233
  C      4.203   -0.012   -8.612
  H      6.019   -0.959   -9.259
  H      6.250   0.637   -8.587
  H      5.584   0.454   -10.191
  C      5.622   0.033   -9.207
  units Angstrom
}

dih_string = "4 7 10 14 140"
set optking fixed_dihedral = $dih_string

optimize('B3LYP/cc-PVDZ')
--------------------------------------------------------------------------

    Molecular point group: c1
  Charge       = 0
  Multiplicity = 1
  Basis Set: CC-PVDZ
   => B3LYP Composite Functional <=
  Basis Set:
  @DF-RKS Final Energy:  -158.44503184780885
    Total Energy =                       -158.4450318478088491
    Molecular point group: c1
  Basis Set: CC-PVDZ
  Basis Set:
   => B3LYP Composite Functional <=
  Basis Set: CC-PVDZ
   => B3LYP Composite Functional <=
  Basis Set:
  @DF-RKS Final Energy:  -158.45094736880725
    Total Energy =                       -158.4509473688072489
  Basis Set: CC-PVDZ
  Basis Set:
   => B3LYP Composite Functional <=
  Basis Set: CC-PVDZ
   => B3LYP Composite Functional <=
  Basis Set:
  @DF-RKS Final Energy:  -158.45372095248470
    Total Energy =                       -158.4537209524847015
  Basis Set: CC-PVDZ
  Basis Set:
  @DF-RKS Final Energy:  -158.45460409193336
    Total Energy =                       -158.4546040919333620
   => B3LYP Composite Functional <=
  Basis Set:
  @DF-RKS Final Energy:  -158.45487323876043
    Total Energy =                       -158.4548732387604275
  Basis Set: CC-PVDZ
  Basis Set:
   => B3LYP Composite Functional <=
  Basis Set: CC-PVDZ
   => B3LYP Composite Functional <=
  Basis Set:
  @DF-RKS Final Energy:  -158.45492056580829
    Total Energy =                       -158.4549205658082940
  Basis Set: CC-PVDZ
  Basis Set:
   => B3LYP Composite Functional <=
  Charge       = 0
  Multiplicity = 1
  Basis Set: CC-PVDZ
   => B3LYP Composite Functional <=
  Basis Set:

    Orbital Energies (a.u.)
    -----------------------

    Doubly Occupied:

       1A    -10.180047     2A    -10.179893     3A    -10.176213
       4A    -10.176212     5A     -0.788932     6A     -0.720377
       7A     -0.627245     8A     -0.571925     9A     -0.460274
      10A     -0.424623    11A     -0.420673    12A     -0.400023
      13A     -0.363671    14A     -0.355625    15A     -0.326209
      16A     -0.320278    17A     -0.316965

  @DF-RKS Final Energy:  -158.45492309477640

   => Energetics <=

    Nuclear Repulsion Energy =            129.8979235630199298
    One-Electron Energy =                -468.2901491194151049
    Two-Electron Energy =                 200.5193648304352223
    DFT Exchange-Correlation Energy =     -20.5820623688164694
    Empirical Dispersion Energy =           0.0000000000000000
    PCM Polarization Energy =               0.0000000000000000
    EFP Energy =                            0.0000000000000000
    Total Energy =                       -158.4549230947764045
    Molecular point group: c1
  Basis Set: CC-PVDZ
  Basis Set:
   => B3LYP Composite Functional <=

  -Total Gradient:
     Atom            X                  Y                   Z
    ------   -----------------  -----------------  -----------------
       1        0.000017511313     0.000004242577    -0.000001230484
       2       -0.000007894751    -0.000005727282    -0.000010802180
       3       -0.000029425859    -0.000001504074    -0.000000083346
       4        0.000732035951     0.000469672085    -0.002685110714
       5        0.000000008264    -0.000015739624     0.000038077743
       6        0.000010379679     0.000002830454     0.000004233815
       7       -0.001403965720    -0.000774290962     0.002695770317
       8       -0.000009665307    -0.000002929774     0.000005256376
       9        0.000005526908     0.000014571286     0.000038255156
      10        0.001767708594     0.000649344737     0.002510227685
      11        0.000006573021     0.000006278385    -0.000011462497
      12       -0.000017761791    -0.000005314793     0.000001273192
      13        0.000028856102     0.000000847095    -0.000003413044
      14       -0.001099669581    -0.000342350476    -0.002577850770

  **** Optimization is complete! (in 7 steps) ****
    Final optimized geometry and variables:
    Molecular point group: c1

    Geometry (in Angstrom), charge = 0, multiplicity = 1:

    H           -2.380228060474     0.020130412539     0.573645261582
    H           -2.239574570645     1.695516181662    -0.008497357866
    H           -1.945890199152     0.336174956979    -1.121627387129
    C           -1.799147486798     0.687855027732    -0.086132601016
    H            0.214243519367     1.376855427568    -0.402128195878
    H           -0.176910557562     1.119395256485     1.294317752060
    C           -0.313883000527     0.690824127258     0.285826968849
    H            0.351554048756    -1.178638870250     1.202845988959
    H           -0.272641811362    -1.357047291735    -0.432933768542
    C            0.348312336208    -0.702507352203     0.206465244997
    H            2.211006327275    -1.685822188483    -0.399989842600
    H            2.436809456210    -0.039336515656     0.235362113932
    H            1.769810063035    -0.276429834597    -1.396016571963
    C            1.767390717036    -0.677078638250    -0.367944398727

*** Psi4 exiting successfully. Buy a developer a beer!
