                               Psi4 1.1 release

  ==> Input File <==

--------------------------------------------------------------------------

memory 5 Gb

molecule phepyrFOH_zwitterion {
  symmetry C1
  0 1
  C      1.885   -1.036   -0.112
  C      0.807   -0.463   0.561
  C      4.245   -1.938   -1.441
  C      4.907   -3.081   0.574
  C      1.800   -1.079   2.676
  C      5.324   -2.522   -2.090
  C      5.969   -3.636   -0.126
  C      2.921   -1.631   0.608
  C      4.038   -2.224   -0.095
  C      0.764   -0.484   1.955
  C      2.878   -1.652   2.002
  N      6.145   -3.344   -1.422
  O      -0.227   0.043   2.574
  F      3.866   -2.220   2.709
  H      1.904   -1.013   -1.200
  H      0.011   -0.007   -0.025
  H      3.583   -1.273   -1.988
  H      4.769   -3.322   1.624
  H      1.791   -1.109   3.764
  H      5.561   -2.357   -3.132
  H      6.692   -4.311   0.311
  H      6.931   -3.763   -1.918
  units Angstrom
}

dih_string = "1 8 9 3 15"
set optking fixed_dihedral = $dih_string

optimize('MP2/aug-cc-PVTZ')
--------------------------------------------------------------------------

    Molecular point group: c1
  Charge       = 0
  Multiplicity = 1
  Basis Set: AUG-CC-PVTZ
    Blend: AUG-CC-PVTZ
  Basis Set: (AUG-CC-PVTZ AUX)
    Blend: AUG-CC-PVTZ-JKFIT
  @DF-RHF Final Energy:  -650.10264677297585
    Total Energy =                       -650.1026467729759588
  Basis Set: (AUG-CC-PVTZ AUX)
    Blend: AUG-CC-PVTZ-RI
    Molecular point group: c1
  Basis Set: AUG-CC-PVTZ
    Blend: AUG-CC-PVTZ
  Basis Set: (AUG-CC-PVTZ AUX)
    Blend: AUG-CC-PVTZ-JKFIT
  Basis Set: (AUG-CC-PVTZ AUX)
    Blend: AUG-CC-PVTZ-JKFIT
	 Reference Energy          =    -650.1026467729758451 [Eh]
	 Singles Energy            =      -0.0000000000000001 [Eh]
	 Same-Spin Energy          =      -0.6799431467531425 [Eh]
	 Opposite-Spin Energy      =      -2.0291298109224232 [Eh]
	 Correlation Energy        =      -2.7090729576755654 [Eh]
	 Total Energy              =    -652.8117197306513617 [Eh]
	 SCS Total Energy          =    -652.7642502616671436 [Eh]
  @DF-RHF Final Energy:  -650.11557836831878
    Total Energy =                       -650.1155783683186655
  @DF-RHF Final Energy:  -650.12575973380876
    Total Energy =                       -650.1257597338087635
  @DF-RHF Final Energy:  -650.13294969395497
    Total Energy =                       -650.1329496939549699
  @DF-RHF Final Energy:  -650.13710228299260
    Total Energy =                       -650.1371022829926005
  @DF-RHF Final Energy:  -650.13892223343248
    Total Energy =                       -650.1389222334325950
  @DF-RHF Final Energy:  -650.13967024597412
    Total Energy =                       -650.1396702459740027
  @DF-RHF Final Energy:  -650.13994051287932
    Total Energy =                       -650.1399405128793205
  @DF-RHF Final Energy:  -650.13993329037601
    Total Energy =                       -650.1399332903758932
  @DF-RHF Final Energy:  -650.13995151256654
    Total Energy =                       -650.1399515125665403
  @DF-RHF Final Energy:  -650.13994313814067
    Total Energy =                       -650.1399431381405520
  Charge       = 0
  Multiplicity = 1
  Basis Set: AUG-CC-PVTZ
    Blend: AUG-CC-PVTZ
  Basis Set: (AUG-CC-PVTZ AUX)
    Blend: AUG-CC-PVTZ-JKFIT

    Orbital Energies (a.u.)
    -----------------------

    Doubly Occupied:

       1A    -26.309215     2A    -20.484280     3A    -15.667744
       4A    -11.335181     5A    -11.332347     6A    -11.331182
       7A    -11.306238     8A    -11.288873     9A    -11.267591
      10A    -11.261314    11A    -11.245180    12A    -11.235574
      13A    -11.208119    14A    -11.205390    15A     -1.626464
      16A     -1.351137    17A     -1.320122    18A     -1.172229
      19A     -1.116763    20A     -1.092609    21A     -1.020256
      22A     -1.006721    23A     -0.912350    24A     -0.905355
      25A     -0.832522    26A     -0.821690    27A     -0.813373
      28A     -0.744242    29A     -0.719597    30A     -0.713352
      31A     -0.694568    32A     -0.677661    33A     -0.673869
      34A     -0.647497    35A     -0.628788    36A     -0.621632
      37A     -0.610444    38A     -0.601508    39A     -0.568652
      40A     -0.551223    41A     -0.532311    42A     -0.530128
      43A     -0.500839    44A     -0.483747    45A     -0.410402
      46A     -0.402338    47A     -0.381364    48A     -0.349351
      49A     -0.259389

  @DF-RHF Final Energy:  -650.13993928206617

   => Energetics <=

    Nuclear Repulsion Energy =            813.6524275260098875
    One-Electron Energy =               -2502.0392910280515935
    Two-Electron Energy =                1038.2469242199756536
    DFT Exchange-Correlation Energy =       0.0000000000000000
    Empirical Dispersion Energy =           0.0000000000000000
    PCM Polarization Energy =               0.0000000000000000
    EFP Energy =                            0.0000000000000000
    Total Energy =                       -650.1399392820660523
  Basis Set: (AUG-CC-PVTZ AUX)
    Blend: AUG-CC-PVTZ-RI
    Molecular point group: c1
  Basis Set: AUG-CC-PVTZ
    Blend: AUG-CC-PVTZ
  Basis Set: (AUG-CC-PVTZ AUX)
    Blend: AUG-CC-PVTZ-JKFIT
  Basis Set: (AUG-CC-PVTZ AUX)
    Blend: AUG-CC-PVTZ-JKFIT
	 Reference Energy          =    -650.1399392820661660 [Eh]
	 Singles Energy            =      -0.0000000000000002 [Eh]
	 Same-Spin Energy          =      -0.6722188808856049 [Eh]
	 Opposite-Spin Energy      =      -2.0231330092125450 [Eh]
	 Correlation Energy        =      -2.6953518900981499 [Eh]
	 Total Energy              =    -652.8352911721642613 [Eh]

	 ================> DF-SCS-MP2 Energies <==================
	-----------------------------------------------------------
	 SCS Same-Spin Scale       =       0.3333333333333333 [-]
	 SCS Opposite-Spin Scale   =       1.2000000000000000 [-]
	 SCS Same-Spin Energy      =      -0.2240729602952016 [Eh]
	 SCS Opposite-Spin Energy  =      -2.4277596110550541 [Eh]
	 SCS Correlation Energy    =      -2.6518325713502557 [Eh]
	 SCS Total Energy          =    -652.7917718534164351 [Eh]
	-----------------------------------------------------------

  -Total Gradient:
     Atom            X                  Y                   Z
    ------   -----------------  -----------------  -----------------
       1       -0.000979003401    -0.001741440513    -0.000040895189
       2        0.000036364225     0.000077082045     0.000001605050
       3        0.001164007823     0.001573598217     0.000493908006
       4       -0.000006053012     0.000010218685     0.000001736650
       5        0.000015279967     0.000075559966     0.000016859442
       6        0.000013572409     0.000009209962     0.000004939351
       7        0.000016134110     0.000006553693    -0.000026110126
       8        0.002126089169     0.003478415955     0.000318166465
       9       -0.002310080337    -0.003334333878    -0.000735987477
      10       -0.000095655661    -0.000229836051    -0.000018127008
      11        0.000010098828     0.000019567685    -0.000031256189
      12        0.000001561805    -0.000005215734     0.000014893363
      13        0.000032906832     0.000085867587     0.000004981426
      14       -0.000002830248    -0.000002307822     0.000020053355
      15       -0.000000223737     0.000000244956     0.000000892743
      16       -0.000004551801     0.000008325658     0.000008345317
      17       -0.000010544921    -0.000015783499    -0.000008368756
      18        0.000000634585    -0.000006374694    -0.000022618946
      19       -0.000001186151    -0.000001595921    -0.000002512732
      20       -0.000004277938    -0.000004602227    -0.000000147619
      21       -0.000003166042    -0.000001865133     0.000002052662
      22        0.000000923487    -0.000001288940    -0.000002409793

  **** Optimization is complete! (in 12 steps) ****
    Final optimized geometry and variables:
    Molecular point group: c1

    Geometry (in Angstrom), charge = 0, multiplicity = 1:

    C           -1.328737832955     0.799193294806    -0.754351476569
    C           -2.413049358265     1.348710779390    -0.157286770827
    C            1.052021684170    -0.170833663821    -2.089019417264
    C            1.765365630353    -1.294602218503    -0.097735412807
    C           -1.494329062776     0.739275415090     2.017826686961
    C            2.085471039490    -0.739155318221    -2.759980152387
    C            2.780254880296    -1.850479487248    -0.808326220075
    C           -0.262148392958     0.176893762409    -0.031245128091
    C            0.808767481139    -0.419487617720    -0.701572898323
    C           -2.571976895998     1.364575752570     1.284455298909
    C           -0.440658022236     0.185444491868     1.381980241273
    N            2.943717451474    -1.581025836987    -2.129065485440
    O           -3.551973362891     1.873140199086     1.844475143099
    F            0.537866393710    -0.351054840527     2.155291910952
    H           -1.294136651038     0.797414886930    -1.832164801771
    H           -3.206915121344     1.783858060948    -0.745119424191
    H            0.429701625369     0.507535752310    -2.645487051897
    H            1.689108758711    -1.556485814468     0.939980606524
    H           -1.536493707454     0.728971897385     3.094897087736
    H            2.279655552453    -0.543503590862    -3.801578035880
    H            3.491534178031    -2.527399602685    -0.364683933414
    H            3.706090488208    -1.994882983881    -2.636122939081

*** Psi4 exiting successfully. Buy a developer a beer!
