                               Psi4 1.1 release

  ==> Input File <==

--------------------------------------------------------------------------

memory 5000 mb

molecule butane {
  symmetry C1
  0 1
  H      1.557   1.068   -8.099
  H      1.835   2.380   -9.219
  H      2.000   0.725   -9.753
  C      2.142   1.395   -8.932
  H      4.169   2.051   -9.210
  H      3.731   1.788   -7.539
  C      3.631   1.416   -8.537
  H      3.665   -0.647   -7.940
  H      4.104   -0.384   -9.610
  C      4.203   -0.012   -8.612
  H      6.088   -0.983   -8.270
  H      5.791   0.381   -7.220
  H      6.230   0.644   -8.890
  C      5.691   0.009   -8.218
  units Angstrom
}

dih_string = "10 7 4 3 320"
set optking fixed_dihedral = $dih_string

optimize('MP2/aug-cc-pvtz')
--------------------------------------------------------------------------

    Molecular point group: c1
  Charge       = 0
  Multiplicity = 1
  Basis Set: AUG-CC-PVTZ
    Blend: AUG-CC-PVTZ
  Basis Set: (AUG-CC-PVTZ AUX)
    Blend: AUG-CC-PVTZ-JKFIT
  @DF-RHF Final Energy:  -157.35141589856354
    Total Energy =                       -157.3514158985635447
  Basis Set: (AUG-CC-PVTZ AUX)
    Blend: AUG-CC-PVTZ-RI
    Molecular point group: c1
  Basis Set: AUG-CC-PVTZ
    Blend: AUG-CC-PVTZ
  Basis Set: (AUG-CC-PVTZ AUX)
    Blend: AUG-CC-PVTZ-JKFIT
  Basis Set: (AUG-CC-PVTZ AUX)
    Blend: AUG-CC-PVTZ-JKFIT
	 Reference Energy          =    -157.3514158985635447 [Eh]
	 Singles Energy            =      -0.0000000000000000 [Eh]
	 Same-Spin Energy          =      -0.1654000047157525 [Eh]
	 Opposite-Spin Energy      =      -0.6388802845427939 [Eh]
	 Correlation Energy        =      -0.8042802892585464 [Eh]
	 Total Energy              =    -158.1556961878220875 [Eh]
	 SCS Total Energy          =    -158.1732055749201606 [Eh]
  @DF-RHF Final Energy:  -157.35410756511374
    Total Energy =                       -157.3541075651137362
  @DF-RHF Final Energy:  -157.35494075114144
    Total Energy =                       -157.3549407511414415
  @DF-RHF Final Energy:  -157.35522907724220
    Total Energy =                       -157.3552290772421998
  @DF-RHF Final Energy:  -157.35524471764830
    Total Energy =                       -157.3552447176483042
  Charge       = 0
  Multiplicity = 1
  Basis Set: AUG-CC-PVTZ
    Blend: AUG-CC-PVTZ
  Basis Set: (AUG-CC-PVTZ AUX)
    Blend: AUG-CC-PVTZ-JKFIT

    Orbital Energies (a.u.)
    -----------------------

    Doubly Occupied:

       1A    -11.211513     2A    -11.210824     3A    -11.206046
       4A    -11.205914     5A     -1.074198     6A     -0.981850
       7A     -0.861126     8A     -0.788305     9A     -0.640436
      10A     -0.586045    11A     -0.577894    12A     -0.567511
      13A     -0.514470    14A     -0.493948    15A     -0.470304
      16A     -0.460276    17A     -0.456744

  @DF-RHF Final Energy:  -157.35525084999932

   => Energetics <=

    Nuclear Repulsion Energy =            131.5170825769358203
    One-Electron Energy =                -471.1298592400905818
    Two-Electron Energy =                 182.2575258131554392
    DFT Exchange-Correlation Energy =       0.0000000000000000
    Empirical Dispersion Energy =           0.0000000000000000
    PCM Polarization Energy =               0.0000000000000000
    EFP Energy =                            0.0000000000000000
    Total Energy =                       -157.3552508499993223
  Basis Set: (AUG-CC-PVTZ AUX)
    Blend: AUG-CC-PVTZ-RI
    Molecular point group: c1
  Basis Set: AUG-CC-PVTZ
    Blend: AUG-CC-PVTZ
  Basis Set: (AUG-CC-PVTZ AUX)
    Blend: AUG-CC-PVTZ-JKFIT
  Basis Set: (AUG-CC-PVTZ AUX)
    Blend: AUG-CC-PVTZ-JKFIT
	 Reference Energy          =    -157.3552508499993223 [Eh]
	 Singles Energy            =      -0.0000000000000000 [Eh]
	 Same-Spin Energy          =      -0.1654702782218374 [Eh]
	 Opposite-Spin Energy      =      -0.6393387816922391 [Eh]
	 Correlation Energy        =      -0.8048090599140766 [Eh]
	 Total Energy              =    -158.1600599099134001 [Eh]

	 ================> DF-SCS-MP2 Energies <==================
	-----------------------------------------------------------
	 SCS Same-Spin Scale       =       0.3333333333333333 [-]
	 SCS Opposite-Spin Scale   =       1.2000000000000000 [-]
	 SCS Same-Spin Energy      =      -0.0551567594072791 [Eh]
	 SCS Opposite-Spin Energy  =      -0.7672065380306869 [Eh]
	 SCS Correlation Energy    =      -0.8223632974379661 [Eh]
	 SCS Total Energy          =    -158.1776141474372821 [Eh]
	-----------------------------------------------------------

  -Total Gradient:
     Atom            X                  Y                   Z
    ------   -----------------  -----------------  -----------------
       1        0.000022154828     0.000011853275    -0.000016098169
       2       -0.000006568756     0.000008080593    -0.000014270806
       3       -0.000437374196    -0.002033383425     0.001756687426
       4        0.000729836328     0.002647540639    -0.002913046907
       5       -0.000018637448     0.000005949888     0.000020562508
       6        0.000011750894    -0.000001053438     0.000013191510
       7       -0.000780678410    -0.000905960183     0.003050777352
       8       -0.000011564469    -0.000002837213    -0.000005008141
       9        0.000006490613    -0.000005917215     0.000021187575
      10        0.000480118570     0.000278605292    -0.001885085300
      11        0.000009096560     0.000003830392     0.000000836620
      12       -0.000010225792     0.000000312740    -0.000002031006
      13        0.000006186515    -0.000000358520     0.000008843716
      14       -0.000000585235    -0.000006662829    -0.000036546378

  **** Optimization is complete! (in 6 steps) ****
    Final optimized geometry and variables:
    Molecular point group: c1

    Geometry (in Angstrom), charge = 0, multiplicity = 1:

    H           -2.378232242822     0.337272370636     0.486959347600
    H           -2.136984620624     1.685219122042    -0.615649461342
    H           -1.968795924405     0.017866543412    -1.180342864931
    C           -1.779152806326     0.694441148581    -0.348780522311
    H            0.245312908576     1.339209601372    -0.674319818271
    H           -0.162915005858     1.119626378075     1.009623278593
    C           -0.303268482097     0.695146364436     0.014877025063
    H           -0.255982404760    -1.359986752565     0.613196046154
    H            0.207233382474    -1.082109572873    -1.049640105222
    C            0.310775793418    -0.690760560763    -0.036729025003
    H            2.200809551431    -1.694904553288     0.312874780727
    H            1.889588771516    -0.338618771065     1.390467643459
    H            2.353919028296    -0.044569652506    -0.279290165780
    C            1.772153317560    -0.697063654291     0.369466915409

*** Psi4 exiting successfully. Buy a developer a beer!
