                              Psi4 1.0.0 Driver

  ==> Input File <==

--------------------------------------------------------------------------

memory 1000 mb

molecule butane {
  symmetry C1
  0 1
  H      1.604   0.760   -8.260
  H      1.745   2.388   -8.880
  H      2.043   1.024   -9.930
  C      2.142   1.395   -8.932
  H      4.169   2.051   -9.210
  H      3.731   1.788   -7.539
  C      3.631   1.416   -8.537
  H      4.589   -0.190   -9.594
  H      4.989   -0.119   -7.895
  C      4.203   -0.012   -8.612
  H      3.486   -2.021   -8.359
  H      2.301   -0.922   -9.024
  H      2.701   -0.852   -7.325
  C      3.088   -1.029   -8.307
  units Angstrom
}

dih_string = "4 7 10 14 330"
set optking fixed_dihedral = $dih_string

optimize('B3LYP/cc-PVDZ')
--------------------------------------------------------------------------

    Molecular point group: c1
  Charge       = 0
  Multiplicity = 1
  Basis Set: CC-PVDZ
   => B3LYP Composite Functional <=
  Basis Set:
  @DF-RKS Final Energy:  -158.43812501651880
    Total Energy =                       -158.4381250165187964
    Molecular point group: c1
  Basis Set: CC-PVDZ
  Basis Set:
   => B3LYP Composite Functional <=
  Basis Set: CC-PVDZ
   => B3LYP Composite Functional <=
  Basis Set:
  @DF-RKS Final Energy:  -158.44667034664707
    Total Energy =                       -158.4466703466470676
  Basis Set: CC-PVDZ
  Basis Set:
   => B3LYP Composite Functional <=
  Basis Set: CC-PVDZ
   => B3LYP Composite Functional <=
  Basis Set:
  @DF-RKS Final Energy:  -158.45102847791679
    Total Energy =                       -158.4510284779167932
  Basis Set: CC-PVDZ
  Basis Set:
  @DF-RKS Final Energy:  -158.45279408436426
    Total Energy =                       -158.4527940843642568
  @DF-RKS Final Energy:  -158.45342874846332
    Total Energy =                       -158.4534287484633239
  @DF-RKS Final Energy:  -158.45360857071057
    Total Energy =                       -158.4536085707105713
  @DF-RKS Final Energy:  -158.45364648641601
    Total Energy =                       -158.4536464864160052
  @DF-RKS Final Energy:  -158.45364329049895
    Total Energy =                       -158.4536432904989454
  @DF-RKS Final Energy:  -158.45363810793361
    Total Energy =                       -158.4536381079336138
  @DF-RKS Final Energy:  -158.45363677572237
    Total Energy =                       -158.4536367757223729
  @DF-RKS Final Energy:  -158.45359775545242
    Total Energy =                       -158.4535977554524209
  @DF-RKS Final Energy:  -158.45360205883051
    Total Energy =                       -158.4536020588305121
  @DF-RKS Final Energy:  -158.45361143683351
    Total Energy =                       -158.4536114368335120
  @DF-RKS Final Energy:  -158.45361547602187
    Total Energy =                       -158.4536154760218665
  **** Optimization is complete! (in 14 steps) ****
    Final optimized geometry and variables:
*** Psi4 exiting successfully. Buy a developer a beer!
  @DF-RKS Final Energy:  -158.45354300004738
    Total Energy =                       -158.4535430000473752
  @DF-RKS Final Energy:  -158.45360566815694
    Total Energy =                       -158.4536056681569391
  @DF-RKS Final Energy:  -158.45351392265056
    Total Energy =                       -158.4535139226505578
  @DF-RKS Final Energy:  -158.45356845626071
    Total Energy =                       -158.4535684562607116
  @DF-RKS Final Energy:  -158.45358199368223
    Total Energy =                       -158.4535819936822350
  @DF-RKS Final Energy:  -158.45358740013603
    Total Energy =                       -158.4535874001360298
  @DF-RKS Final Energy:  -158.45357398355614
    Total Energy =                       -158.4535739835561401
  @DF-RKS Final Energy:  -158.45356581024595
    Total Energy =                       -158.4535658102459479
  @DF-RKS Final Energy:  -158.45357017742964
    Total Energy =                       -158.4535701774296399
  @DF-RKS Final Energy:  -158.45357445386838
    Total Energy =                       -158.4535744538683844
  @DF-RKS Final Energy:  -158.45357945133068
    Total Energy =                       -158.4535794513306826
  @DF-RKS Final Energy:  -158.45343364915533
    Total Energy =                       -158.4534336491553290
  @DF-RKS Final Energy:  -158.45292717351896
    Total Energy =                       -158.4529271735189582
  @DF-RKS Final Energy:  -158.45352400829020
    Total Energy =                       -158.4535240082902021
  @DF-RKS Final Energy:  -158.45355623869239
    Total Energy =                       -158.4535562386923857
  @DF-RKS Final Energy:  -158.45356324539742
    Total Energy =                       -158.4535632453974188
  @DF-RKS Final Energy:  -158.45350044673674
    Total Energy =                       -158.4535004467367401
  @DF-RKS Final Energy:  -158.45354896602825
    Total Energy =                       -158.4535489660282508
  @DF-RKS Final Energy:  -158.45302645488371
    Total Energy =                       -158.4530264548837124
  @DF-RKS Final Energy:  -158.45355179089805
    Total Energy =                       -158.4535517908980466
  @DF-RKS Final Energy:  -158.45354003003504
    Total Energy =                       -158.4535400300350432
  @DF-RKS Final Energy:  -158.45355151526951
    Total Energy =                       -158.4535515152695098
  @DF-RKS Final Energy:  -158.45355324693824
    Total Energy =                       -158.4535532469382417
   => B3LYP Composite Functional <=
  Basis Set:
  @DF-RKS Final Energy:  -158.45354633064409
    Total Energy =                       -158.4535463306440874
  Basis Set: CC-PVDZ
  Basis Set:
   => B3LYP Composite Functional <=
  Basis Set: CC-PVDZ
   => B3LYP Composite Functional <=
  Basis Set:
  @DF-RKS Final Energy:  -158.45354814177614
    Total Energy =                       -158.4535481417761389
  Basis Set: CC-PVDZ
  Basis Set:
   => B3LYP Composite Functional <=
  Charge       = 0
  Multiplicity = 1
  Basis Set: CC-PVDZ
   => B3LYP Composite Functional <=
  Basis Set:

    Orbital Energies (a.u.)
    -----------------------

    Doubly Occupied:

       1A    -10.180603     2A    -10.180443     3A    -10.175417
       4A    -10.175333     5A     -0.788134     6A     -0.715862
       7A     -0.640412     8A     -0.557514     9A     -0.457394
      10A     -0.446800    11A     -0.407477    12A     -0.387118
      13A     -0.374295    14A     -0.357113    15A     -0.327110
      16A     -0.322122    17A     -0.308570

  @DF-RKS Final Energy:  -158.45355027562445

   => Energetics <=

    Nuclear Repulsion Energy =            131.9163232887038362
    One-Electron Energy =                -472.3387098274099571
    Two-Electron Energy =                 202.5517369508216916
    DFT Exchange-Correlation Energy =     -20.5829006877400289
    Empirical Dispersion Energy =           0.0000000000000000
    PCM Polarization Energy =               0.0000000000000000
    EFP Energy =                            0.0000000000000000
    Total Energy =                       -158.4535502756244512
    Molecular point group: c1
  Basis Set: CC-PVDZ
  Basis Set:
   => B3LYP Composite Functional <=

  -Total Gradient:
     Atom            X                  Y                   Z
    ------   -----------------  -----------------  -----------------
       1       -0.000115600458    -0.000064450907    -0.000132876822
       2       -0.000024633229     0.000025757931    -0.000091966348
       3       -0.000054587387    -0.000082457330    -0.000156078719
       4       -0.000889811225    -0.000227328052     0.004489836165
       5       -0.000058930497     0.000234315725     0.000171682245
       6        0.000090213707     0.000325295485     0.000358372984
       7        0.000930645394     0.000054271152    -0.008299665822
       8        0.000355273884    -0.000167936956    -0.000329489375
       9       -0.000104115052    -0.000248883727    -0.000301296686
      10        0.000721305175     0.000457614049     0.008302389646
      11        0.000003346054    -0.000020557587    -0.000111816670
      12        0.000054996166    -0.000079496168     0.000049956614
      13        0.000049244304    -0.000060052888    -0.000016122328
      14       -0.000949470067    -0.000142331462    -0.003933044929

    Molecular point group: c1

    Geometry (in Angstrom), charge = 0, multiplicity = 1:

    H           -1.784069934768     0.553586700989     0.354882388381
    H           -1.467154562270     2.134743701492    -0.400633938420
    H           -1.380104042372     0.635249171402    -1.371607164490
    C           -1.161813914448     1.080174506384    -0.381366648265
    H            0.909630651696     1.606951004419    -0.702029545471
    H            0.444034821502     1.436256961361     0.990523365038
    C            0.321536171348     0.977837242801    -0.012481298744
    H            1.330525213404    -0.675610659058    -0.996452142963
    H            1.806348792989    -0.432498113644     0.674751273898
    C            0.932586188734    -0.443765006293     0.013739847945
    H            0.515964386785    -2.544867145252     0.397565424564
    H           -0.854277580775    -1.655015414190    -0.325292346539
    H           -0.438923429323    -1.443994983433     1.384826120920
    C           -0.015207673671    -1.581895662166     0.379559385793

*** Psi4 exiting successfully. Buy a developer a beer!
