                               Psi4 1.1 release

  ==> Input File <==

--------------------------------------------------------------------------

memory 5 Gb

molecule phepyrOH_cation {
  symmetry C1
  1 1
  C      1.885   -1.036   -0.112
  C      2.878   -1.652   2.002
  C      0.807   -0.463   0.561
  C      1.800   -1.079   2.676
  C      4.440   -1.719   -1.322
  C      4.716   -3.305   0.469
  C      5.516   -2.309   -1.970
  C      5.786   -3.855   -0.224
  C      2.921   -1.631   0.608
  C      4.040   -2.225   -0.090
  C      0.764   -0.484   1.955
  N      6.150   -3.348   -1.409
  O      -0.288   0.076   2.612
  H      1.904   -1.012   -1.199
  H      3.678   -2.112   2.578
  H      0.003   -0.001   -0.006
  H      1.772   -1.098   3.762
  H      3.931   -0.877   -1.782
  H      4.425   -3.721   1.429
  H      5.897   -1.982   -2.928
  H      6.368   -4.693   0.134
  H      6.938   -3.767   -1.902
  H      0.019   0.788   3.195
  units Angstrom
}

dih_string = "3 11 13 23 240"
set optking fixed_dihedral = $dih_string

optimize('MP2/aug-cc-PVTZ')
--------------------------------------------------------------------------

    Molecular point group: c1
  Charge       = 1
  Multiplicity = 1
  Basis Set: AUG-CC-PVTZ
    Blend: AUG-CC-PVTZ
  Basis Set: (AUG-CC-PVTZ AUX)
    Blend: AUG-CC-PVTZ-JKFIT
  @DF-RHF Final Energy:  -551.67172779766497
    Total Energy =                       -551.6717277976649711
  Basis Set: (AUG-CC-PVTZ AUX)
    Blend: AUG-CC-PVTZ-RI
    Molecular point group: c1
  Basis Set: AUG-CC-PVTZ
    Blend: AUG-CC-PVTZ
  Basis Set: (AUG-CC-PVTZ AUX)
    Blend: AUG-CC-PVTZ-JKFIT
  Basis Set: (AUG-CC-PVTZ AUX)
    Blend: AUG-CC-PVTZ-JKFIT
	 Reference Energy          =    -551.6717277976649711 [Eh]
	 Singles Energy            =      -0.0000000000000017 [Eh]
	 Same-Spin Energy          =      -0.5962504038466312 [Eh]
	 Opposite-Spin Energy      =      -1.8247974842024952 [Eh]
	 Correlation Energy        =      -2.4210478880491282 [Eh]
	 Total Energy              =    -554.0927756857140594 [Eh]
	 SCS Total Energy          =    -554.0602349133234839 [Eh]
  @DF-RHF Final Energy:  -551.67664538445615
    Total Energy =                       -551.6766453844561511
  @DF-RHF Final Energy:  -551.67729702600298
    Total Energy =                       -551.6772970260029751
  @DF-RHF Final Energy:  -551.67723171814634
    Total Energy =                       -551.6772317181463450
  @DF-RHF Final Energy:  -551.67722747221978
    Total Energy =                       -551.6772274722197835
  Charge       = 1
  Multiplicity = 1
  Basis Set: AUG-CC-PVTZ
    Blend: AUG-CC-PVTZ
  Basis Set: (AUG-CC-PVTZ AUX)
    Blend: AUG-CC-PVTZ-JKFIT

    Orbital Energies (a.u.)
    -----------------------

    Doubly Occupied:

       1A    -20.692335     2A    -15.830221     3A    -11.481418
       4A    -11.481379     5A    -11.451498     6A    -11.427371
       7A    -11.411470     8A    -11.411447     9A    -11.378192
      10A    -11.377138    11A    -11.376056    12A    -11.354612
      13A    -11.351356    14A     -1.513530    15A     -1.508918
      16A     -1.320114    17A     -1.266998    18A     -1.239565
      19A     -1.157200    20A     -1.155188    21A     -1.064402
      22A     -1.058288    23A     -0.973245    24A     -0.963564
      25A     -0.953764    26A     -0.868585    27A     -0.862654
      28A     -0.855522    29A     -0.819597    30A     -0.802089
      31A     -0.781108    32A     -0.771148    33A     -0.758556
      34A     -0.747454    35A     -0.725490    36A     -0.709596
      37A     -0.703164    38A     -0.664347    39A     -0.657246
      40A     -0.637568    41A     -0.600519    42A     -0.573822
      43A     -0.540524    44A     -0.471866    45A     -0.446763

  @DF-RHF Final Energy:  -551.67722839920043

   => Energetics <=

    Nuclear Repulsion Energy =            713.0787733877696155
    One-Electron Energy =               -2149.1182331555187375
    Two-Electron Energy =                 884.3622313685486915
    DFT Exchange-Correlation Energy =       0.0000000000000000
    Empirical Dispersion Energy =           0.0000000000000000
    PCM Polarization Energy =               0.0000000000000000
    EFP Energy =                            0.0000000000000000
    Total Energy =                       -551.6772283992004304
  Basis Set: (AUG-CC-PVTZ AUX)
    Blend: AUG-CC-PVTZ-RI
    Molecular point group: c1
  Basis Set: AUG-CC-PVTZ
    Blend: AUG-CC-PVTZ
  Basis Set: (AUG-CC-PVTZ AUX)
    Blend: AUG-CC-PVTZ-JKFIT
  Basis Set: (AUG-CC-PVTZ AUX)
    Blend: AUG-CC-PVTZ-JKFIT
	 Reference Energy          =    -551.6772283992004304 [Eh]
	 Singles Energy            =      -0.0000000000000001 [Eh]
	 Same-Spin Energy          =      -0.5954535309853315 [Eh]
	 Opposite-Spin Energy      =      -1.8230058117460886 [Eh]
	 Correlation Energy        =      -2.4184593427314200 [Eh]
	 Total Energy              =    -554.0956877419318971 [Eh]

	 ================> DF-SCS-MP2 Energies <==================
	-----------------------------------------------------------
	 SCS Same-Spin Scale       =       0.3333333333333333 [-]
	 SCS Opposite-Spin Scale   =       1.2000000000000000 [-]
	 SCS Same-Spin Energy      =      -0.1984845103284438 [Eh]
	 SCS Opposite-Spin Energy  =      -2.1876069740953064 [Eh]
	 SCS Correlation Energy    =      -2.3860914844237504 [Eh]
	 SCS Total Energy          =    -554.0633198836242173 [Eh]
	-----------------------------------------------------------

  -Total Gradient:
     Atom            X                  Y                   Z
    ------   -----------------  -----------------  -----------------
       1       -0.000045595220     0.000025940897    -0.000010274413
       2       -0.000011326744     0.000004673499     0.000038064466
       3        0.001372793740     0.002633829956     0.000111744861
       4       -0.000019973194    -0.000002066373     0.000008847277
       5        0.000003961832     0.000018371588    -0.000017784840
       6       -0.000003716246    -0.000025423545     0.000012738745
       7        0.000008755540    -0.000013747403     0.000020229477
       8       -0.000005798712     0.000009393158    -0.000025178606
       9        0.000026572578    -0.000012552745    -0.000012088136
      10       -0.000004165126     0.000006996584     0.000007301327
      11       -0.002107293047    -0.003262343398    -0.000962429832
      12       -0.000003401413     0.000003431128     0.000003416697
      13        0.001200728038    -0.002087960773     0.003861809388
      14        0.000025542419    -0.000009082576    -0.000004018678
      15        0.000017857221    -0.000003607569    -0.000021362475
      16       -0.000007731434     0.000012776601     0.000016308518
      17       -0.000010395726    -0.000003495404     0.000003692629
      18       -0.000010574892    -0.000000348421     0.000007478924
      19       -0.000006792906     0.000011201271     0.000005521809
      20        0.000000340459    -0.000006350779    -0.000002410612
      21        0.000006564536     0.000002633243    -0.000001903642
      22        0.000005993046    -0.000003764475    -0.000003441480
      23       -0.000432344754     0.002701495544    -0.003036261399

  **** Optimization is complete! (in 6 steps) ****
    Final optimized geometry and variables:
    Molecular point group: c1

    Geometry (in Angstrom), charge = 1, multiplicity = 1:

    C           -1.267878079710     0.757065549734    -0.554654203627
    C           -0.296922797292     0.099553032294     1.549047221717
    C           -2.334494476604     1.323602276465     0.114502303056
    C           -1.361368646984     0.669805438200     2.219192649147
    C            1.293528459411    -0.000054630455    -1.802782665931
    C            1.588433372062    -1.546705558956    -0.007832274742
    C            2.348667032576    -0.583766941641    -2.457316191720
    C            2.640370363330    -2.108428107185    -0.686423824389
    C           -0.234981968013     0.134416368095     0.152716827027
    C            0.878096908867    -0.467485800425    -0.549237263695
    C           -2.387321439597     1.279637370973     1.503269186331
    N            2.990625238542    -1.615860854148    -1.885806232822
    O           -3.474577302264     1.808613034264     2.126059129558
    H           -1.261760717616     0.770464128021    -1.634129200843
    H            0.504513862404    -0.342267434970     2.121848271754
    H           -3.144491104193     1.792249675836    -0.421630140546
    H           -1.409303440981     0.644029252743     3.296997402326
    H            0.810452019188     0.845493769546    -2.263843436456
    H            1.302664261513    -1.976044129274     0.938164358060
    H            2.711035596069    -0.254911542499    -3.417017840413
    H            3.210124009810    -2.944814617975    -0.317223271134
    H            3.767198991098    -2.038720237613    -2.377763678383
    H           -3.212011220231     2.518973174600     2.720363287431

*** Psi4 exiting successfully. Buy a developer a beer!
