                               Psi4 1.1 release

  ==> Input File <==

--------------------------------------------------------------------------

memory 5 Gb

molecule phepyrFOH_zwitterion {
  symmetry C1
  0 1
  C      1.885   -1.036   -0.112
  C      0.807   -0.463   0.561
  C      5.298   -2.250   0.495
  C      3.854   -2.769   -1.362
  C      1.800   -1.079   2.676
  C      6.351   -2.825   -0.203
  C      4.943   -3.331   -2.013
  C      2.921   -1.631   0.608
  C      4.038   -2.224   -0.095
  C      0.764   -0.484   1.955
  C      2.878   -1.652   2.002
  N      6.146   -3.342   -1.422
  O      -0.227   0.043   2.574
  F      3.866   -2.220   2.709
  H      1.904   -1.013   -1.200
  H      0.011   -0.007   -0.025
  H      5.470   -1.832   1.483
  H      2.882   -2.762   -1.847
  H      1.791   -1.109   3.764
  H      7.361   -2.890   0.177
  H      4.894   -3.777   -2.997
  H      6.933   -3.759   -1.917
  units Angstrom
}

dih_string = "1 8 9 3 150"
set optking fixed_dihedral = $dih_string

optimize('MP2/aug-cc-PVTZ')
--------------------------------------------------------------------------

    Molecular point group: c1
  Charge       = 0
  Multiplicity = 1
  Basis Set: AUG-CC-PVTZ
    Blend: AUG-CC-PVTZ
  Basis Set: (AUG-CC-PVTZ AUX)
    Blend: AUG-CC-PVTZ-JKFIT
  @DF-RHF Final Energy:  -650.10572575990921
    Total Energy =                       -650.1057257599090917
  Basis Set: (AUG-CC-PVTZ AUX)
    Blend: AUG-CC-PVTZ-RI
    Molecular point group: c1
  Basis Set: AUG-CC-PVTZ
    Blend: AUG-CC-PVTZ
  Basis Set: (AUG-CC-PVTZ AUX)
    Blend: AUG-CC-PVTZ-JKFIT
  Basis Set: (AUG-CC-PVTZ AUX)
    Blend: AUG-CC-PVTZ-JKFIT
	 Reference Energy          =    -650.1057257599092054 [Eh]
	 Singles Energy            =      -0.0000000000000001 [Eh]
	 Same-Spin Energy          =      -0.6794385688273326 [Eh]
	 Opposite-Spin Energy      =      -2.0278136691149129 [Eh]
	 Correlation Energy        =      -2.7072522379422455 [Eh]
	 Total Energy              =    -652.8129779978514762 [Eh]
	 SCS Total Energy          =    -652.7655816857895843 [Eh]
  @DF-RHF Final Energy:  -650.11726183013616
    Total Energy =                       -650.1172618301361581
  @DF-RHF Final Energy:  -650.12617099788747
    Total Energy =                       -650.1261709978873569
  @DF-RHF Final Energy:  -650.13211581845871
    Total Energy =                       -650.1321158184587148
  @DF-RHF Final Energy:  -650.13513246656873
    Total Energy =                       -650.1351324665688480
  @DF-RHF Final Energy:  -650.13640897769960
    Total Energy =                       -650.1364089776996025
  @DF-RHF Final Energy:  -650.13708038822881
    Total Energy =                       -650.1370803882286964
  @DF-RHF Final Energy:  -650.13743111371093
    Total Energy =                       -650.1374311137108180
  @DF-RHF Final Energy:  -650.13751817870013
    Total Energy =                       -650.1375181787002475
  @DF-RHF Final Energy:  -650.13750458164452
    Total Energy =                       -650.1375045816444072
  @DF-RHF Final Energy:  -650.13749327107485
    Total Energy =                       -650.1374932710748453
  @DF-RHF Final Energy:  -650.13748495009202
    Total Energy =                       -650.1374849500919026
  @DF-RHF Final Energy:  -650.13745908059002
    Total Energy =                       -650.1374590805899061
  @DF-RHF Final Energy:  -650.13745292801138
    Total Energy =                       -650.1374529280112711
  @DF-RHF Final Energy:  -650.13743037982726
    Total Energy =                       -650.1374303798272649
  Charge       = 0
  Multiplicity = 1
  Basis Set: AUG-CC-PVTZ
    Blend: AUG-CC-PVTZ
  Basis Set: (AUG-CC-PVTZ AUX)
    Blend: AUG-CC-PVTZ-JKFIT

    Orbital Energies (a.u.)
    -----------------------

    Doubly Occupied:

       1A    -26.307452     2A    -20.480977     3A    -15.670962
       4A    -11.337834     5A    -11.334745     6A    -11.328369
       7A    -11.306530     8A    -11.286829     9A    -11.269136
      10A    -11.264943    11A    -11.244545    12A    -11.232067
      13A    -11.205942    14A    -11.203871    15A     -1.624128
      16A     -1.353446    17A     -1.317154    18A     -1.173426
      19A     -1.116436    20A     -1.095080    21A     -1.018715
      22A     -1.005939    23A     -0.914268    24A     -0.905043
      25A     -0.831665    26A     -0.821504    27A     -0.812727
      28A     -0.742676    29A     -0.720111    30A     -0.712032
      31A     -0.694406    32A     -0.677495    33A     -0.673367
      34A     -0.651309    35A     -0.630411    36A     -0.620097
      37A     -0.611935    38A     -0.598575    39A     -0.567959
      40A     -0.553564    41A     -0.531132    42A     -0.527561
      43A     -0.501339    44A     -0.480047    45A     -0.412181
      46A     -0.402616    47A     -0.378740    48A     -0.347863
      49A     -0.256763

  @DF-RHF Final Energy:  -650.13744035374327

   => Energetics <=

    Nuclear Repulsion Energy =            814.6029346627252608
    One-Electron Energy =               -2503.9689266939831214
    Two-Electron Energy =                1039.2285516775145879
    DFT Exchange-Correlation Energy =       0.0000000000000000
    Empirical Dispersion Energy =           0.0000000000000000
    PCM Polarization Energy =               0.0000000000000000
    EFP Energy =                            0.0000000000000000
    Total Energy =                       -650.1374403537433864
  Basis Set: (AUG-CC-PVTZ AUX)
    Blend: AUG-CC-PVTZ-RI
    Molecular point group: c1
  Basis Set: AUG-CC-PVTZ
    Blend: AUG-CC-PVTZ
  Basis Set: (AUG-CC-PVTZ AUX)
    Blend: AUG-CC-PVTZ-JKFIT
  Basis Set: (AUG-CC-PVTZ AUX)
    Blend: AUG-CC-PVTZ-JKFIT
	 Reference Energy          =    -650.1374403537432727 [Eh]
	 Singles Energy            =      -0.0000000000000003 [Eh]
	 Same-Spin Energy          =      -0.6727486346016672 [Eh]
	 Opposite-Spin Energy      =      -2.0231259426411201 [Eh]
	 Correlation Energy        =      -2.6958745772427877 [Eh]
	 Total Energy              =    -652.8333149309860346 [Eh]

	 ================> DF-SCS-MP2 Energies <==================
	-----------------------------------------------------------
	 SCS Same-Spin Scale       =       0.3333333333333333 [-]
	 SCS Opposite-Spin Scale   =       1.2000000000000000 [-]
	 SCS Same-Spin Energy      =      -0.2242495448672224 [Eh]
	 SCS Opposite-Spin Energy  =      -2.4277511311693440 [Eh]
	 SCS Correlation Energy    =      -2.6520006760365669 [Eh]
	 SCS Total Energy          =    -652.7894410297798231 [Eh]
	-----------------------------------------------------------

  -Total Gradient:
     Atom            X                  Y                   Z
    ------   -----------------  -----------------  -----------------
       1        0.002486077254     0.004746174995     0.000209265854
       2       -0.000017552686    -0.000058694499    -0.000008904270
       3        0.001140052367     0.004974704394    -0.002262614860
       4        0.000012849380     0.000013937414     0.000003090157
       5       -0.000016008243    -0.000030318482    -0.000008636631
       6       -0.000014350458    -0.000005660159     0.000013615317
       7       -0.000005949488     0.000020778055    -0.000001347820
       8       -0.003104441204    -0.004410380980    -0.001619497183
       9       -0.000528855281    -0.005338927941     0.003681508595
      10        0.000090202739     0.000159654844     0.000002215811
      11       -0.000052310508    -0.000061544708     0.000000895354
      12       -0.000001955341    -0.000001788379     0.000001633054
      13       -0.000026285499    -0.000056905902    -0.000001567002
      14        0.000037344268     0.000033731260    -0.000006137972
      15        0.000012594017     0.000015814549    -0.000014021499
      16       -0.000003636780    -0.000001374092     0.000002002636
      17        0.000008463052     0.000010915185     0.000011341079
      18       -0.000014412808    -0.000001799735    -0.000006098219
      19       -0.000001145109    -0.000004929255     0.000001410816
      20       -0.000000541780    -0.000000618899     0.000002106810
      21       -0.000001950214    -0.000001944081     0.000000716214
      22        0.000001812337    -0.000000823590    -0.000000976232

  **** Optimization is complete! (in 16 steps) ****
    Final optimized geometry and variables:
    Molecular point group: c1

    Geometry (in Angstrom), charge = 0, multiplicity = 1:

    C           -1.409261683061     0.636305913826    -0.757485765138
    C           -2.434495032288     1.288983347374    -0.157804856847
    C            2.085389681296    -0.562076888864    -0.137571068182
    C            0.672531968037    -0.957912135255    -2.035354318463
    C           -1.444126509878     0.804921977354     2.022564498569
    C            3.137967324393    -1.029335345200    -0.857499638895
    C            1.747742183245    -1.429493843721    -2.716866493153
    C           -0.334426786478     0.043932095730    -0.026899358500
    C            0.767932597342    -0.506516862753    -0.684317349900
    C           -2.532595498898     1.409267293678     1.284947644035
    C           -0.424963083646     0.193140186135     1.383622911377
    N            2.973267242112    -1.466489812392    -2.133426297309
    O           -3.473956046881     1.987397321944     1.844663121467
    F            0.545586706846    -0.383533484711     2.138256038348
    H           -1.369366699435     0.615543604600    -1.836378466977
    H           -3.205913064024     1.764865333262    -0.743821960706
    H            2.277029472250    -0.208116939083     0.858851716227
    H           -0.280533444438    -0.978018710622    -2.536515677459
    H           -1.466419602190     0.837070755843     3.099775156074
    H            4.141764540766    -1.055174640780    -0.467063138651
    H            1.682706192145    -1.800811036029    -3.726117256103
    H            3.762499068206    -1.815648191298    -2.648320995522

*** Psi4 exiting successfully. Buy a developer a beer!
