                               Psi4 1.1 release

  ==> Input File <==

--------------------------------------------------------------------------

memory 5 Gb

molecule phepyrFOH_cation {
  symmetry C1
  1 1
  C      1.885   -1.036   -0.112
  C      0.807   -0.463   0.561
  C      4.830   -1.443   -0.930
  C      4.321   -3.578   0.063
  C      1.800   -1.079   2.676
  C      5.894   -2.040   -1.592
  C      5.398   -4.120   -0.624
  C      2.921   -1.631   0.608
  C      4.038   -2.225   -0.095
  C      0.764   -0.484   1.955
  C      2.878   -1.652   2.002
  N      6.144   -3.345   -1.422
  O      -0.289   0.076   2.612
  F      3.866   -2.220   2.709
  H      1.904   -1.012   -1.199
  H      0.002   -0.002   -0.006
  H      4.632   -0.385   -1.072
  H      3.719   -4.212   0.708
  H      1.772   -1.099   3.762
  H      6.561   -1.511   -2.259
  H      5.691   -5.159   -0.561
  H      6.930   -3.764   -1.918
  H      -0.653   0.813   2.097
  units Angstrom
}

dih_string = "2 10 13 23 330"
set optking fixed_dihedral = $dih_string

optimize('MP2/aug-cc-PVTZ')
--------------------------------------------------------------------------

    Molecular point group: c1
  Charge       = 1
  Multiplicity = 1
  Basis Set: AUG-CC-PVTZ
    Blend: AUG-CC-PVTZ
  Basis Set: (AUG-CC-PVTZ AUX)
    Blend: AUG-CC-PVTZ-JKFIT
  @DF-RHF Final Energy:  -650.55811151807961
    Total Energy =                       -650.5581115180796132
  Basis Set: (AUG-CC-PVTZ AUX)
    Blend: AUG-CC-PVTZ-RI
    Molecular point group: c1
  Basis Set: AUG-CC-PVTZ
    Blend: AUG-CC-PVTZ
  Basis Set: (AUG-CC-PVTZ AUX)
    Blend: AUG-CC-PVTZ-JKFIT
  Basis Set: (AUG-CC-PVTZ AUX)
    Blend: AUG-CC-PVTZ-JKFIT
	 Reference Energy          =    -650.5581115180796132 [Eh]
	 Singles Energy            =      -0.0000000000000004 [Eh]
	 Same-Spin Energy          =      -0.6690247613655840 [Eh]
	 Opposite-Spin Energy      =      -2.0137675464477338 [Eh]
	 Correlation Energy        =      -2.6827923078133185 [Eh]
	 Total Energy              =    -653.2409038258929286 [Eh]
	 SCS Total Energy          =    -653.1976408276053689 [Eh]
  @DF-RHF Final Energy:  -650.56358462216349
    Total Energy =                       -650.5635846221634893
  @DF-RHF Final Energy:  -650.56521697290873
    Total Energy =                       -650.5652169729087291
  @DF-RHF Final Energy:  -650.56573464411122
    Total Energy =                       -650.5657346441112168
  @DF-RHF Final Energy:  -650.56610298104022
    Total Energy =                       -650.5661029810403306
  @DF-RHF Final Energy:  -650.56651961358307
    Total Energy =                       -650.5665196135830683
  @DF-RHF Final Energy:  -650.56695657962359
    Total Energy =                       -650.5669565796235929
  @DF-RHF Final Energy:  -650.56736321509186
    Total Energy =                       -650.5673632150917456
  @DF-RHF Final Energy:  -650.56770885139565
    Total Energy =                       -650.5677088513955368
  @DF-RHF Final Energy:  -650.56798125482578
    Total Energy =                       -650.5679812548257814
  @DF-RHF Final Energy:  -650.56817281622602
    Total Energy =                       -650.5681728162260242
  @DF-RHF Final Energy:  -650.56828191556747
    Total Energy =                       -650.5682819155674679
  @DF-RHF Final Energy:  -650.56830234720985
    Total Energy =                       -650.5683023472099649
  @DF-RHF Final Energy:  -650.56829353890760
    Total Energy =                       -650.5682935389077102
  @DF-RHF Final Energy:  -650.56832447916327
    Total Energy =                       -650.5683244791632660
  @DF-RHF Final Energy:  -650.56833087733412
    Total Energy =                       -650.5683308773341196
  @DF-RHF Final Energy:  -650.56822903250600
    Total Energy =                       -650.5682290325059967
  @DF-RHF Final Energy:  -650.56825858614150
    Total Energy =                       -650.5682585861416101
  @DF-RHF Final Energy:  -650.56835049006054
    Total Energy =                       -650.5683504900605385
  @DF-RHF Final Energy:  -650.56831943558689
    Total Energy =                       -650.5683194355870000
  Charge       = 1
  Multiplicity = 1
  Basis Set: AUG-CC-PVTZ
    Blend: AUG-CC-PVTZ
  Basis Set: (AUG-CC-PVTZ AUX)
    Blend: AUG-CC-PVTZ-JKFIT

    Orbital Energies (a.u.)
    -----------------------

    Doubly Occupied:

       1A    -26.443834     2A    -20.713141     3A    -15.830385
       4A    -11.481153     5A    -11.478975     6A    -11.471718
       7A    -11.454476     8A    -11.446378     9A    -11.412742
      10A    -11.408951    11A    -11.390738    12A    -11.383219
      13A    -11.359991    14A    -11.356362    15A     -1.764151
      16A     -1.536344    17A     -1.508526    18A     -1.324201
      19A     -1.275936    20A     -1.238570    21A     -1.170832
      22A     -1.160819    23A     -1.065533    24A     -1.064088
      25A     -0.990895    26A     -0.979217    27A     -0.961128
      28A     -0.899103    29A     -0.882255    30A     -0.865254
      31A     -0.834974    32A     -0.832944    33A     -0.819891
      34A     -0.807487    35A     -0.792663    36A     -0.773464
      37A     -0.767225    38A     -0.756918    39A     -0.733971
      40A     -0.723477    41A     -0.706818    42A     -0.679080
      43A     -0.672955    44A     -0.647660    45A     -0.632063
      46A     -0.575337    47A     -0.538596    48A     -0.478537
      49A     -0.449313

  @DF-RHF Final Energy:  -650.56831065718893

   => Energetics <=

    Nuclear Repulsion Energy =            831.2198284202564764
    One-Electron Energy =               -2522.4916979734643974
    Two-Electron Energy =                1040.7035588960191035
    DFT Exchange-Correlation Energy =       0.0000000000000000
    Empirical Dispersion Energy =           0.0000000000000000
    PCM Polarization Energy =               0.0000000000000000
    EFP Energy =                            0.0000000000000000
    Total Energy =                       -650.5683106571889311
  Basis Set: (AUG-CC-PVTZ AUX)
    Blend: AUG-CC-PVTZ-RI
    Molecular point group: c1
  Basis Set: AUG-CC-PVTZ
    Blend: AUG-CC-PVTZ
  Basis Set: (AUG-CC-PVTZ AUX)
    Blend: AUG-CC-PVTZ-JKFIT
  Basis Set: (AUG-CC-PVTZ AUX)
    Blend: AUG-CC-PVTZ-JKFIT
	 Reference Energy          =    -650.5683106571889311 [Eh]
	 Singles Energy            =      -0.0000000000000002 [Eh]
	 Same-Spin Energy          =      -0.6688125882952645 [Eh]
	 Opposite-Spin Energy      =      -2.0122682653332680 [Eh]
	 Correlation Energy        =      -2.6810808536285324 [Eh]
	 Total Energy              =    -653.2493915108174178 [Eh]

	 ================> DF-SCS-MP2 Energies <==================
	-----------------------------------------------------------
	 SCS Same-Spin Scale       =       0.3333333333333333 [-]
	 SCS Opposite-Spin Scale   =       1.2000000000000000 [-]
	 SCS Same-Spin Energy      =      -0.2229375294317548 [Eh]
	 SCS Opposite-Spin Energy  =      -2.4147219183999216 [Eh]
	 SCS Correlation Energy    =      -2.6376594478316764 [Eh]
	 SCS Total Energy          =    -653.2059701050205831 [Eh]
	-----------------------------------------------------------

  -Total Gradient:
     Atom            X                  Y                   Z
    ------   -----------------  -----------------  -----------------
       1       -0.000026224385    -0.000011477178    -0.000014308946
       2       -0.001610842227    -0.002574900367    -0.000707974576
       3        0.000010424753     0.000003741119    -0.000014907888
       4       -0.000002991682    -0.000037551123     0.000022163894
       5        0.000002531976    -0.000041664984    -0.000015514458
       6       -0.000013636166     0.000016279481     0.000000739984
       7       -0.000022332912    -0.000003451699     0.000025103991
       8        0.000011526442    -0.000028032255    -0.000033894022
       9       -0.000008221444     0.000054630149     0.000031924889
      10        0.003131093306     0.004631179072     0.001716628092
      11       -0.000011826978     0.000009763074     0.000016803704
      12        0.000025282322    -0.000009676518    -0.000016445263
      13       -0.003968890096    -0.004063704497    -0.003462013417
      14        0.000034374233    -0.000023116116    -0.000008165358
      15        0.000012810304    -0.000001094073    -0.000007247964
      16        0.000010744844     0.000003543117     0.000008434625
      17       -0.000012371757     0.000019062801    -0.000000981528
      18       -0.000012370289     0.000002106304     0.000006774340
      19        0.000002617286     0.000004634080     0.000030723438
      20        0.000007213138     0.000005648181    -0.000008233099
      21        0.000005949950    -0.000012911795     0.000000382979
      22        0.000000353288    -0.000001142683    -0.000001568444
      23        0.002434786101     0.002058135922     0.002431575018

  **** Optimization is complete! (in 21 steps) ****
    Final optimized geometry and variables:
    Molecular point group: c1

    Geometry (in Angstrom), charge = 1, multiplicity = 1:

    C           -1.143544641488     1.052207617749    -0.720326149410
    C           -2.228906883342     1.617068485051    -0.087693642403
    C            1.475403261472     0.269100525053    -1.804612790749
    C            1.378072024164    -1.652826536773    -0.387687145768
    C           -1.578656275376     0.544648142271     1.969272364535
    C            2.527173236549    -0.298137240856    -2.478578630368
    C            2.430624705637    -2.192558090413    -1.084093791097
    C           -0.257751831745     0.202893617028    -0.045343418115
    C            0.863585918507    -0.395359166810    -0.733334121190
    C           -2.439408448058     1.381483542892     1.270572525183
    C           -0.522253288252    -0.026859619613     1.305828450707
    N            2.974723494236    -1.506932786368    -2.102298424917
    O           -3.504380413280     1.854370352659     1.944336818235
    F            0.318824508452    -0.800574767958     2.012514300430
    H           -1.012903190377     1.221750651025    -1.778329759832
    H           -2.920049745575     2.232165583782    -0.643061388933
    H            1.151066111162     1.253579611220    -2.098946518639
    H            0.946362308366    -2.226382999677     0.413291861025
    H           -1.730327467535     0.355846041025     3.019361035978
    H            3.036426921744     0.178240930416    -3.299531736668
    H            2.854025134952    -3.158473041217    -0.864826831375
    H            3.753753120209    -1.915203129803    -2.602762398143
    H           -3.808333802257     2.684480659074     1.560595171479

*** Psi4 exiting successfully. Buy a developer a beer!
