                               Psi4 1.1 release

  ==> Input File <==

--------------------------------------------------------------------------

memory 5 Gb

molecule phepyrFOH_neutral {
  symmetry C1
  0 1
  C      1.885   -1.036   -0.112
  C      0.807   -0.463   0.561
  C      5.339   -1.985   0.333
  C      3.814   -3.039   -1.200
  C      1.800   -1.079   2.676
  C      6.373   -2.578   -0.373
  C      4.916   -3.584   -1.837
  C      2.921   -1.631   0.608
  C      4.038   -2.225   -0.095
  C      0.764   -0.484   1.955
  C      2.878   -1.652   2.002
  N      6.195   -3.374   -1.451
  O      -0.289   0.076   2.612
  F      3.866   -2.220   2.709
  H      1.904   -1.012   -1.199
  H      0.002   -0.002   -0.006
  H      5.553   -1.356   1.191
  H      2.812   -3.248   -1.562
  H      1.772   -1.099   3.762
  H      7.406   -2.424   -0.079
  H      4.795   -4.225   -2.704
  H      -0.175   -0.018   3.571
  units Angstrom
}

dih_string = "1 8 9 3 135"
set optking fixed_dihedral = $dih_string

optimize('MP2/aug-cc-PVTZ')
--------------------------------------------------------------------------

    Molecular point group: c1
  Charge       = 0
  Multiplicity = 1
  Basis Set: AUG-CC-PVTZ
    Blend: AUG-CC-PVTZ
  Basis Set: (AUG-CC-PVTZ AUX)
    Blend: AUG-CC-PVTZ-JKFIT
  @DF-RHF Final Energy:  -650.17336037276959
    Total Energy =                       -650.1733603727695936
  Basis Set: (AUG-CC-PVTZ AUX)
    Blend: AUG-CC-PVTZ-RI
    Molecular point group: c1
  Basis Set: AUG-CC-PVTZ
    Blend: AUG-CC-PVTZ
  Basis Set: (AUG-CC-PVTZ AUX)
    Blend: AUG-CC-PVTZ-JKFIT
  Basis Set: (AUG-CC-PVTZ AUX)
    Blend: AUG-CC-PVTZ-JKFIT
	 Reference Energy          =    -650.1733603727695936 [Eh]
	 Singles Energy            =      -0.0000000000000004 [Eh]
	 Same-Spin Energy          =      -0.6780306033527163 [Eh]
	 Opposite-Spin Energy      =      -2.0199941876623551 [Eh]
	 Correlation Energy        =      -2.6980247910150719 [Eh]
	 Total Energy              =    -652.8713851637846801 [Eh]
	 SCS Total Energy          =    -652.8233635990819721 [Eh]
  @DF-RHF Final Energy:  -650.17974175809218
    Total Energy =                       -650.1797417580921774
  @DF-RHF Final Energy:  -650.18179707793274
    Total Energy =                       -650.1817970779327425
  @DF-RHF Final Energy:  -650.18192298159408
    Total Energy =                       -650.1819229815939707
  @DF-RHF Final Energy:  -650.18191804749722
    Total Energy =                       -650.1819180474972200
  @DF-RHF Final Energy:  -650.18193870180482
    Total Energy =                       -650.1819387018047109
  Charge       = 0
  Multiplicity = 1
  Basis Set: AUG-CC-PVTZ
    Blend: AUG-CC-PVTZ
  Basis Set: (AUG-CC-PVTZ AUX)
    Blend: AUG-CC-PVTZ-JKFIT

    Orbital Energies (a.u.)
    -----------------------

    Doubly Occupied:

       1A    -26.323391     2A    -20.611725     3A    -15.561685
       4A    -11.347633     5A    -11.327822     6A    -11.271743
       7A    -11.270683     8A    -11.268264     9A    -11.263354
      10A    -11.254874    11A    -11.251723    12A    -11.241819
      13A    -11.237897    14A    -11.236091    15A     -1.642037
      16A     -1.429590    17A     -1.258525    18A     -1.186163
      19A     -1.112595    20A     -1.045119    21A     -1.033826
      22A     -1.024729    23A     -0.894705    24A     -0.879460
      25A     -0.854310    26A     -0.828791    27A     -0.774644
      28A     -0.748077    29A     -0.726619    30A     -0.710013
      31A     -0.695850    32A     -0.666799    33A     -0.662454
      34A     -0.640756    35A     -0.636177    36A     -0.617589
      37A     -0.612178    38A     -0.595982    39A     -0.581825
      40A     -0.548150    41A     -0.543459    42A     -0.537136
      43A     -0.517952    44A     -0.500043    45A     -0.417669
      46A     -0.398578    47A     -0.362429    48A     -0.347704
      49A     -0.320863

  @DF-RHF Final Energy:  -650.18196260117793

   => Energetics <=

    Nuclear Repulsion Energy =            814.2685189669543888
    One-Electron Energy =               -2503.2579644868114883
    Two-Electron Energy =                1038.8074829186791703
    DFT Exchange-Correlation Energy =       0.0000000000000000
    Empirical Dispersion Energy =           0.0000000000000000
    PCM Polarization Energy =               0.0000000000000000
    EFP Energy =                            0.0000000000000000
    Total Energy =                       -650.1819626011779292
  Basis Set: (AUG-CC-PVTZ AUX)
    Blend: AUG-CC-PVTZ-RI
    Molecular point group: c1
  Basis Set: AUG-CC-PVTZ
    Blend: AUG-CC-PVTZ
  Basis Set: (AUG-CC-PVTZ AUX)
    Blend: AUG-CC-PVTZ-JKFIT
  Basis Set: (AUG-CC-PVTZ AUX)
    Blend: AUG-CC-PVTZ-JKFIT
	 Reference Energy          =    -650.1819626011779292 [Eh]
	 Singles Energy            =      -0.0000000000000003 [Eh]
	 Same-Spin Energy          =      -0.6768374835758115 [Eh]
	 Opposite-Spin Energy      =      -2.0170819810687450 [Eh]
	 Correlation Energy        =      -2.6939194646445572 [Eh]
	 Total Energy              =    -652.8758820658224522 [Eh]

	 ================> DF-SCS-MP2 Energies <==================
	-----------------------------------------------------------
	 SCS Same-Spin Scale       =       0.3333333333333333 [-]
	 SCS Opposite-Spin Scale   =       1.2000000000000000 [-]
	 SCS Same-Spin Energy      =      -0.2256124945252705 [Eh]
	 SCS Opposite-Spin Energy  =      -2.4204983772824940 [Eh]
	 SCS Correlation Energy    =      -2.6461108718077648 [Eh]
	 SCS Total Energy          =    -652.8280734729856931 [Eh]
	-----------------------------------------------------------

  -Total Gradient:
     Atom            X                  Y                   Z
    ------   -----------------  -----------------  -----------------
       1        0.000375534012     0.000746243771     0.000015595311
       2        0.000018170463    -0.000032872087    -0.000018976322
       3        0.000031507301     0.000665892384    -0.000491739618
       4        0.000000366078     0.000025665106    -0.000037588200
       5       -0.000016365279     0.000005670137     0.000030943648
       6       -0.000019867685     0.000032946358    -0.000010826748
       7       -0.000005318447    -0.000045574330     0.000043013289
       8       -0.000510155812    -0.000777811528    -0.000315481975
       9        0.000108087668    -0.000645194822     0.000865725112
      10        0.000025620684     0.000018954870    -0.000009630226
      11       -0.000082998156     0.000002460170    -0.000059305416
      12        0.000012609608    -0.000007259328    -0.000017554199
      13       -0.000013827835     0.000002574038     0.000003033625
      14        0.000061333797    -0.000016076674     0.000014904442
      15        0.000004645401     0.000004137312    -0.000004359386
      16       -0.000010750446     0.000010960623     0.000009695840
      17        0.000007080500     0.000003969492    -0.000010862372
      18        0.000001292069    -0.000000861379    -0.000000849768
      19        0.000009473187    -0.000003435419     0.000002463959
      20        0.000003837523    -0.000004286899     0.000006349759
      21       -0.000000947717     0.000014456174    -0.000017232867
      22        0.000000673078    -0.000000557955     0.000002682108

  **** Optimization is complete! (in 7 steps) ****
    Final optimized geometry and variables:
    Molecular point group: c1

    Geometry (in Angstrom), charge = 0, multiplicity = 1:

    C           -1.317008910210     0.716881408947    -0.781742745095
    C           -2.407093548834     1.300048491962    -0.164048382194
    C            2.181154759598    -0.242493636558    -0.327221955365
    C            0.688786681687    -1.262546184430    -1.864578476274
    C           -1.465113493185     0.747193198963     1.973811862553
    C            3.222988882427    -0.807669255655    -1.044842870561
    C            1.793688326864    -1.784559296820    -2.517628812164
    C           -0.274237890740     0.135397458678    -0.058533204944
    C            0.870612197502    -0.467610128958    -0.737045911560
    C           -2.482785234493     1.314901282614     1.221715768940
    C           -0.389656880691     0.178709333542     1.323149630937
    N            3.052012105060    -1.570623566600    -2.127285932367
    O           -3.573325049706     1.899728709258     1.784954954633
    F            0.570022500885    -0.380996425613     2.084503895621
    H           -1.252194291845     0.724873204146    -1.859481330595
    H           -3.198577512942     1.753087156619    -0.738895553008
    H            2.388913748264     0.373158401323     0.533201696932
    H           -0.305987321804    -1.486214286135    -2.219862037838
    H           -1.492960299603     0.732483219213     3.052726993025
    H            4.245300173709    -0.636285301336    -0.738439426272
    H            1.662818540402    -2.406766622689    -3.391980939960
    H           -3.503972916264     1.845474370779     2.742906662883

*** Psi4 exiting successfully. Buy a developer a beer!
