                               Psi4 1.1 release

  ==> Input File <==

--------------------------------------------------------------------------

memory 5 Gb

molecule phepyrOH_anion {
  symmetry C1
  -1 1
  C      1.885   -1.036   -0.112
  C      2.878   -1.652   2.002
  C      0.807   -0.463   0.561
  C      1.800   -1.079   2.676
  C      4.836   -1.448   -0.924
  C      4.324   -3.577   0.072
  C      5.896   -2.065   -1.569
  C      5.407   -4.099   -0.618
  C      2.921   -1.631   0.608
  C      4.040   -2.226   -0.090
  C      0.764   -0.484   1.955
  N      6.203   -3.375   -1.437
  O      -0.227   0.042   2.574
  H      1.904   -1.011   -1.199
  H      3.678   -2.112   2.577
  H      0.011   -0.006   -0.025
  H      1.791   -1.108   3.764
  H      4.646   -0.391   -1.075
  H      3.725   -4.215   0.714
  H      6.548   -1.502   -2.229
  H      5.671   -5.147   -0.527
  units Angstrom
}

dih_string = "1 9 10 5 60"
set optking fixed_dihedral = $dih_string

optimize('MP2/aug-cc-PVTZ')
--------------------------------------------------------------------------

    Molecular point group: c1
  Charge       = -1
  Multiplicity = 1
  Basis Set: AUG-CC-PVTZ
    Blend: AUG-CC-PVTZ
  Basis Set: (AUG-CC-PVTZ AUX)
    Blend: AUG-CC-PVTZ-JKFIT
  @DF-RHF Final Energy:  -550.71174375967337
    Total Energy =                       -550.7117437596733680
  Basis Set: (AUG-CC-PVTZ AUX)
    Blend: AUG-CC-PVTZ-RI
    Molecular point group: c1
  Basis Set: AUG-CC-PVTZ
    Blend: AUG-CC-PVTZ
  Basis Set: (AUG-CC-PVTZ AUX)
    Blend: AUG-CC-PVTZ-JKFIT
  Basis Set: (AUG-CC-PVTZ AUX)
    Blend: AUG-CC-PVTZ-JKFIT
	 Reference Energy          =    -550.7117437596733680 [Eh]
	 Singles Energy            =      -0.0000000000000003 [Eh]
	 Same-Spin Energy          =      -0.6134607951870831 [Eh]
	 Opposite-Spin Energy      =      -1.8375514611964523 [Eh]
	 Correlation Energy        =      -2.4510122563835357 [Eh]
	 Total Energy              =    -553.1627560160569601 [Eh]
	 SCS Total Energy          =    -553.1212924448381045 [Eh]
  @DF-RHF Final Energy:  -550.71821444088380
    Total Energy =                       -550.7182144408837985
  @DF-RHF Final Energy:  -550.72214994485819
    Total Energy =                       -550.7221499448581881
  @DF-RHF Final Energy:  -550.72359274085329
    Total Energy =                       -550.7235927408532916
  @DF-RHF Final Energy:  -550.72396034859753
    Total Energy =                       -550.7239603485975294
  @DF-RHF Final Energy:  -550.72413919246071
    Total Energy =                       -550.7241391924607115
  @DF-RHF Final Energy:  -550.72423983182421
    Total Energy =                       -550.7242398318242067
  @DF-RHF Final Energy:  -550.72424490167384
    Total Energy =                       -550.7242449016738419
  @DF-RHF Final Energy:  -550.72420273108992
    Total Energy =                       -550.7242027310899175
  @DF-RHF Final Energy:  -550.72416878043293
    Total Energy =                       -550.7241687804329331
  @DF-RHF Final Energy:  -550.72382891639654
    Total Energy =                       -550.7238289163965419
  @DF-RHF Final Energy:  -550.72407152970368
    Total Energy =                       -550.7240715297036786
  @DF-RHF Final Energy:  -550.72412316650832
    Total Energy =                       -550.7241231665083205
  @DF-RHF Final Energy:  -550.72408998868605
    Total Energy =                       -550.7240899886860461
  Charge       = -1
  Multiplicity = 1
  Basis Set: AUG-CC-PVTZ
    Blend: AUG-CC-PVTZ
  Basis Set: (AUG-CC-PVTZ AUX)
    Blend: AUG-CC-PVTZ-JKFIT

    Orbital Energies (a.u.)
    -----------------------

    Doubly Occupied:

       1A    -20.311758     2A    -15.453515     3A    -11.166531
       4A    -11.166454     5A    -11.146630     6A    -11.127243
       7A    -11.120887     8A    -11.120238     9A    -11.098084
      10A    -11.097230    11A    -11.074268    12A    -11.059095
      13A    -11.058308    14A     -1.148964    15A     -1.142402
      16A     -1.016315    17A     -0.957954    18A     -0.923267
      19A     -0.863827    20A     -0.836726    21A     -0.746518
      22A     -0.735258    23A     -0.673809    24A     -0.649081
      25A     -0.595484    26A     -0.554248    27A     -0.540618
      28A     -0.511643    29A     -0.488143    30A     -0.484319
      31A     -0.480300    32A     -0.434286    33A     -0.432221
      34A     -0.417210    35A     -0.404667    36A     -0.374991
      37A     -0.369773    38A     -0.347726    39A     -0.312914
      40A     -0.304747    41A     -0.253940    42A     -0.241780
      43A     -0.219561    44A     -0.198118    45A     -0.107239

  @DF-RHF Final Energy:  -550.72409414269987

   => Energetics <=

    Nuclear Repulsion Energy =            682.1396644297225293
    One-Electron Energy =               -2114.1909295310124435
    Two-Electron Energy =                 881.3271709585901590
    DFT Exchange-Correlation Energy =       0.0000000000000000
    Empirical Dispersion Energy =           0.0000000000000000
    PCM Polarization Energy =               0.0000000000000000
    EFP Energy =                            0.0000000000000000
    Total Energy =                       -550.7240941426998688
  Basis Set: (AUG-CC-PVTZ AUX)
    Blend: AUG-CC-PVTZ-RI
    Molecular point group: c1
  Basis Set: AUG-CC-PVTZ
    Blend: AUG-CC-PVTZ
  Basis Set: (AUG-CC-PVTZ AUX)
    Blend: AUG-CC-PVTZ-JKFIT
  Basis Set: (AUG-CC-PVTZ AUX)
    Blend: AUG-CC-PVTZ-JKFIT
	 Reference Energy          =    -550.7240941426998688 [Eh]
	 Singles Energy            =      -0.0000000000000002 [Eh]
	 Same-Spin Energy          =      -0.6125052778908153 [Eh]
	 Opposite-Spin Energy      =      -1.8363780555522995 [Eh]
	 Correlation Energy        =      -2.4488833334431148 [Eh]
	 Total Energy              =    -553.1729774761429326 [Eh]

	 ================> DF-SCS-MP2 Energies <==================
	-----------------------------------------------------------
	 SCS Same-Spin Scale       =       0.3333333333333333 [-]
	 SCS Opposite-Spin Scale   =       1.2000000000000000 [-]
	 SCS Same-Spin Energy      =      -0.2041684259636051 [Eh]
	 SCS Opposite-Spin Energy  =      -2.2036536666627593 [Eh]
	 SCS Correlation Energy    =      -2.4078220926263643 [Eh]
	 SCS Total Energy          =    -553.1319162353262300 [Eh]
	-----------------------------------------------------------

  -Total Gradient:
     Atom            X                  Y                   Z
    ------   -----------------  -----------------  -----------------
       1       -0.003769989164    -0.006172223052     0.000055101608
       2       -0.000006899400    -0.000013022389     0.000014487830
       3       -0.000017173183    -0.000027948123    -0.000015342420
       4       -0.000016669701    -0.000025954085    -0.000005260969
       5        0.004692718634     0.001567884922     0.005429485441
       6        0.000009393125    -0.000003738973     0.000004570472
       7       -0.000003373714     0.000012737049     0.000003004553
       8       -0.000013845801    -0.000004183658     0.000011660605
       9        0.008090604521     0.010086997111     0.002722536847
      10       -0.009016839695    -0.005477162014    -0.008224992074
      11        0.000052183438     0.000099721237     0.000024238336
      12        0.000009710779    -0.000004723881    -0.000008893348
      13       -0.000016254479    -0.000040617982    -0.000008545182
      14        0.000002633903     0.000002157231    -0.000002170326
      15        0.000002324430     0.000002510546    -0.000001051866
      16       -0.000001356587     0.000000459928     0.000001440820
      17       -0.000001192542    -0.000000575816     0.000003160495
      18       -0.000001066742    -0.000003341142    -0.000000183261
      19        0.000002764897     0.000001783504    -0.000002393100
      20        0.000001108337     0.000001031458    -0.000001790147
      21        0.000001218931    -0.000001791871     0.000000935695

  **** Optimization is complete! (in 15 steps) ****
    Final optimized geometry and variables:
    Molecular point group: c1

    Geometry (in Angstrom), charge = -1, multiplicity = 1:

    C           -1.249713063731     0.865936620266    -0.537880888089
    C           -0.335163769317     0.063531865762     1.517290082206
    C           -2.342358269291     1.368965833670     0.136599566224
    C           -1.411337871495     0.583277313448     2.205056352928
    C            1.688655536358     0.253518385337    -1.501964890557
    C            1.236116520561    -1.754606417940    -0.346949319541
    C            2.740478724103    -0.395695892030    -2.125047545814
    C            2.316263099890    -2.319100408757    -1.004261780399
    C           -0.196721344741     0.226924512991     0.131773554548
    C            0.868212985820    -0.429076790564    -0.598354686295
    C           -2.491366217262     1.275533921649     1.560720924011
    N            3.076009651654    -1.671462789055    -1.895608509883
    O           -3.482651960493     1.749214903340     2.187972639425
    H           -1.205358910311     0.950821237439    -1.617988152173
    H            0.446184988278    -0.452982353175     2.063164531393
    H           -3.143981492667     1.847311079121    -0.410262047290
    H           -1.469584502576     0.478415037096     3.280424938459
    H            1.495865896358     1.296036136401    -1.709927670603
    H            0.659551562968    -2.341898090983     0.352416746852
    H            3.364851249955     0.140111253081    -2.828749019866
    H            2.585419793132    -3.350040309328    -0.811777896727

*** Psi4 exiting successfully. Buy a developer a beer!
