                               Psi4 1.1 release

  ==> Input File <==

--------------------------------------------------------------------------

memory 5 Gb

molecule phepyrOH_neutral {
  symmetry C1
  0 1
  C      1.885   -1.036   -0.112
  C      2.878   -1.652   2.002
  C      0.807   -0.463   0.561
  C      1.800   -1.079   2.676
  C      3.830   -3.270   -0.983
  C      5.329   -1.753   0.128
  C      4.934   -3.804   -1.627
  C      6.366   -2.355   -0.566
  C      2.921   -1.631   0.608
  C      4.040   -2.225   -0.090
  C      0.764   -0.484   1.955
  N      6.201   -3.372   -1.441
  O      -0.288   0.076   2.612
  H      1.904   -1.012   -1.199
  H      3.678   -2.112   2.578
  H      0.003   -0.001   -0.006
  H      1.772   -1.098   3.762
  H      2.838   -3.665   -1.180
  H      5.531   -0.939   0.817
  H      4.824   -4.620   -2.335
  H      7.390   -2.024   -0.431
  H      -0.175   -0.018   3.571
  units Angstrom
}

dih_string = "1 9 10 5 300"
set optking fixed_dihedral = $dih_string

optimize('MP2/aug-cc-PVTZ')
--------------------------------------------------------------------------

    Molecular point group: c1
  Charge       = 0
  Multiplicity = 1
  Basis Set: AUG-CC-PVTZ
    Blend: AUG-CC-PVTZ
  Basis Set: (AUG-CC-PVTZ AUX)
    Blend: AUG-CC-PVTZ-JKFIT
  @DF-RHF Final Energy:  -551.28620840078054
    Total Energy =                       -551.2862084007805379
  Basis Set: (AUG-CC-PVTZ AUX)
    Blend: AUG-CC-PVTZ-RI
    Molecular point group: c1
  Basis Set: AUG-CC-PVTZ
    Blend: AUG-CC-PVTZ
  Basis Set: (AUG-CC-PVTZ AUX)
    Blend: AUG-CC-PVTZ-JKFIT
  Basis Set: (AUG-CC-PVTZ AUX)
    Blend: AUG-CC-PVTZ-JKFIT
	 Reference Energy          =    -551.2862084007805379 [Eh]
	 Singles Energy            =      -0.0000000000000003 [Eh]
	 Same-Spin Energy          =      -0.6044493934866138 [Eh]
	 Opposite-Spin Energy      =      -1.8300393723917794 [Eh]
	 Correlation Energy        =      -2.4344887658783936 [Eh]
	 Total Energy              =    -553.7206971666589652 [Eh]
	 SCS Total Energy          =    -553.6837387788128808 [Eh]
  @DF-RHF Final Energy:  -551.29148807283116
    Total Energy =                       -551.2914880728311573
  @DF-RHF Final Energy:  -551.29248070566064
    Total Energy =                       -551.2924807056606369
  @DF-RHF Final Energy:  -551.29239471220342
    Total Energy =                       -551.2923947122034178
  @DF-RHF Final Energy:  -551.29237278101016
    Total Energy =                       -551.2923727810101582
  @DF-RHF Final Energy:  -551.29239671138782
    Total Energy =                       -551.2923967113878234
  @DF-RHF Final Energy:  -551.29138073026968
    Total Energy =                       -551.2913807302696796
  @DF-RHF Final Energy:  -551.29233889126249
    Total Energy =                       -551.2923388912624887
  @DF-RHF Final Energy:  -551.29236456563262
    Total Energy =                       -551.2923645656326244
  @DF-RHF Final Energy:  -551.29237260434240
    Total Energy =                       -551.2923726043424040
  @DF-RHF Final Energy:  -551.29214554424516
    Total Energy =                       -551.2921455442451588
  @DF-RHF Final Energy:  -551.29234291718444
    Total Energy =                       -551.2923429171844418
  @DF-RHF Final Energy:  -551.29236801804927
    Total Energy =                       -551.2923680180492738
  @DF-RHF Final Energy:  -551.29238057807925
    Total Energy =                       -551.2923805780792463
  @DF-RHF Final Energy:  -551.29237139856070
    Total Energy =                       -551.2923713985607037
  @DF-RHF Final Energy:  -551.29163757218839
    Total Energy =                       -551.2916375721883924
  @DF-RHF Final Energy:  -551.29236200217451
    Total Energy =                       -551.2923620021745137
  @DF-RHF Final Energy:  -551.29234813830169
    Total Energy =                       -551.2923481383016906
  Charge       = 0
  Multiplicity = 1
  Basis Set: AUG-CC-PVTZ
    Blend: AUG-CC-PVTZ
  Basis Set: (AUG-CC-PVTZ AUX)
    Blend: AUG-CC-PVTZ-JKFIT

    Orbital Energies (a.u.)
    -----------------------

    Doubly Occupied:

       1A    -20.600397     2A    -15.561323     3A    -11.311553
       4A    -11.271647     5A    -11.271544     6A    -11.263244
       7A    -11.251578     8A    -11.249561     9A    -11.244606
      10A    -11.242996    11A    -11.236526    12A    -11.235758
      13A    -11.235681    14A     -1.417636    15A     -1.258116
      16A     -1.174258    17A     -1.104957    18A     -1.036809
      19A     -1.031227    20A     -1.012579    21A     -0.880150
      22A     -0.867579    23A     -0.849029    24A     -0.811963
      25A     -0.747057    26A     -0.725377    27A     -0.682319
      28A     -0.662137    29A     -0.657892    30A     -0.637096
      31A     -0.615795    32A     -0.603181    33A     -0.602058
      34A     -0.595431    35A     -0.581502    36A     -0.541471
      37A     -0.531143    38A     -0.522510    39A     -0.504757
      40A     -0.492253    41A     -0.416967    42A     -0.387434
      43A     -0.355986    44A     -0.347127    45A     -0.316685

  @DF-RHF Final Energy:  -551.29237083351268

   => Energetics <=

    Nuclear Repulsion Energy =            697.5610658977242338
    One-Electron Energy =               -2131.8130901212539356
    Two-Electron Energy =                 882.9596533900169106
    DFT Exchange-Correlation Energy =       0.0000000000000000
    Empirical Dispersion Energy =           0.0000000000000000
    PCM Polarization Energy =               0.0000000000000000
    EFP Energy =                            0.0000000000000000
    Total Energy =                       -551.2923708335126776
  Basis Set: (AUG-CC-PVTZ AUX)
    Blend: AUG-CC-PVTZ-RI
    Molecular point group: c1
  Basis Set: AUG-CC-PVTZ
    Blend: AUG-CC-PVTZ
  Basis Set: (AUG-CC-PVTZ AUX)
    Blend: AUG-CC-PVTZ-JKFIT
  Basis Set: (AUG-CC-PVTZ AUX)
    Blend: AUG-CC-PVTZ-JKFIT
	 Reference Energy          =    -551.2923708335126776 [Eh]
	 Singles Energy            =      -0.0000000000000001 [Eh]
	 Same-Spin Energy          =      -0.6036770661509470 [Eh]
	 Opposite-Spin Energy      =      -1.8278813903877751 [Eh]
	 Correlation Energy        =      -2.4315584565387223 [Eh]
	 Total Energy              =    -553.7239292900513874 [Eh]

	 ================> DF-SCS-MP2 Energies <==================
	-----------------------------------------------------------
	 SCS Same-Spin Scale       =       0.3333333333333333 [-]
	 SCS Opposite-Spin Scale   =       1.2000000000000000 [-]
	 SCS Same-Spin Energy      =      -0.2012256887169823 [Eh]
	 SCS Opposite-Spin Energy  =      -2.1934576684653302 [Eh]
	 SCS Correlation Energy    =      -2.3946833571823127 [Eh]
	 SCS Total Energy          =    -553.6870541906949938 [Eh]
	-----------------------------------------------------------

  -Total Gradient:
     Atom            X                  Y                   Z
    ------   -----------------  -----------------  -----------------
       1        0.001542096318     0.002797354118     0.000059200468
       2        0.000021226660    -0.000009012680    -0.000038529928
       3       -0.000004735483     0.000023769665     0.000102429294
       4       -0.000020182857    -0.000005627797     0.000017869482
       5        0.000367175319    -0.002154442555     0.002357291116
       6       -0.000043713079     0.000041768165    -0.000016994869
       7       -0.000086195345     0.000050130369    -0.000041779981
       8       -0.000002157246     0.000018259031     0.000098517990
       9       -0.002065095207    -0.005214050333     0.001025261237
      10        0.000202984592     0.004519934691    -0.003481310676
      11       -0.000053901099    -0.000027467633    -0.000085618582
      12        0.000031279833    -0.000022511270    -0.000034942381
      13        0.000052488019    -0.000005277687     0.000064486174
      14       -0.000010972431     0.000012682932     0.000060777761
      15       -0.000016655441     0.000014886682     0.000008825364
      16        0.000012800975    -0.000015036714    -0.000021754929
      17        0.000008935289     0.000007485731    -0.000017641868
      18        0.000047737876     0.000002916270     0.000002918070
      19        0.000009851531    -0.000014136386    -0.000014670651
      20        0.000025940788    -0.000016680894     0.000030614200
      21       -0.000019918516    -0.000008754664    -0.000022330656
      22        0.000001009485     0.000003810969    -0.000052616627

  **** Optimization is complete! (in 19 steps) ****
    Final optimized geometry and variables:
    Molecular point group: c1

    Geometry (in Angstrom), charge = 0, multiplicity = 1:

    C           -1.306111336834     0.678388354853    -0.564758596446
    C           -0.267935600237     0.121422078361     1.519177652899
    C           -2.371656565404     1.248936114818     0.109608186623
    C           -1.334060556078     0.686249511201     2.202096290325
    C            0.742397903179    -1.502680848616    -1.506380405831
    C            2.195507606209    -0.034797437068    -0.339064701594
    C            1.859654910972    -2.028870551207    -2.136022257120
    C            3.252802977280    -0.623993594082    -1.014708542897
    C           -0.246547268831     0.095397341344     0.127964625314
    C            0.898138035251    -0.468176595993    -0.590051100087
    C           -2.388779860558     1.250726414372     1.497351914124
    N            3.105458909416    -1.607444066792    -1.905627920124
    O           -3.463952138680     1.823419472579     2.107244931366
    H           -1.290148329172     0.690929739275    -1.644555387733
    H            0.548005527311    -0.319336561402     2.072718618373
    H           -3.191356951082     1.704537456648    -0.423719339031
    H           -1.345360630002     0.685886960981     3.283345270238
    H           -0.240101381401    -1.895734601730    -1.720553683167
    H            2.375264577916     0.763505169650     0.365304674102
    H            1.752324479940    -2.833048375441    -2.850510245910
    H            4.265258380615    -0.289749495132    -0.835954730336
    H           -3.351424083069     1.763403854784     3.060589379068

*** Psi4 exiting successfully. Buy a developer a beer!
