                               Psi4 1.1 release

  ==> Input File <==

--------------------------------------------------------------------------

memory 5 Gb

molecule phepyrOH_anion {
  symmetry C1
  -1 1
  C      1.885   -1.036   -0.112
  C      2.878   -1.652   2.002
  C      0.807   -0.463   0.561
  C      1.800   -1.079   2.676
  C      3.862   -2.774   -1.355
  C      5.298   -2.250   0.501
  C      4.965   -3.330   -1.983
  C      6.337   -2.830   -0.209
  C      2.921   -1.631   0.608
  C      4.040   -2.226   -0.090
  C      0.764   -0.484   1.955
  N      6.202   -3.372   -1.440
  O      -0.227   0.042   2.574
  H      1.904   -1.011   -1.199
  H      3.678   -2.112   2.577
  H      0.011   -0.006   -0.025
  H      1.791   -1.108   3.764
  H      2.895   -2.773   -1.850
  H      5.475   -1.833   1.487
  H      4.879   -3.769   -2.971
  H      7.337   -2.875   0.209
  units Angstrom
}

dih_string = "1 9 10 5 330"
set optking fixed_dihedral = $dih_string

optimize('MP2/aug-cc-PVTZ')
--------------------------------------------------------------------------

    Molecular point group: c1
  Charge       = -1
  Multiplicity = 1
  Basis Set: AUG-CC-PVTZ
    Blend: AUG-CC-PVTZ
  Basis Set: (AUG-CC-PVTZ AUX)
    Blend: AUG-CC-PVTZ-JKFIT
  @DF-RHF Final Energy:  -550.71590424064857
    Total Energy =                       -550.7159042406485696
  Basis Set: (AUG-CC-PVTZ AUX)
    Blend: AUG-CC-PVTZ-RI
    Molecular point group: c1
  Basis Set: AUG-CC-PVTZ
    Blend: AUG-CC-PVTZ
  Basis Set: (AUG-CC-PVTZ AUX)
    Blend: AUG-CC-PVTZ-JKFIT
  Basis Set: (AUG-CC-PVTZ AUX)
    Blend: AUG-CC-PVTZ-JKFIT
	 Reference Energy          =    -550.7159042406485696 [Eh]
	 Singles Energy            =      -0.0000000000000001 [Eh]
	 Same-Spin Energy          =      -0.6140451176497064 [Eh]
	 Opposite-Spin Energy      =      -1.8386350402206704 [Eh]
	 Correlation Energy        =      -2.4526801578703767 [Eh]
	 Total Energy              =    -553.1685843985189877 [Eh]
	 SCS Total Energy          =    -553.1269479947966374 [Eh]
  @DF-RHF Final Energy:  -550.72320029464936
    Total Energy =                       -550.7232002946493594
  @DF-RHF Final Energy:  -550.72771110201654
    Total Energy =                       -550.7277111020165421
  @DF-RHF Final Energy:  -550.72948669258267
    Total Energy =                       -550.7294866925826682
  @DF-RHF Final Energy:  -550.72967599122364
    Total Energy =                       -550.7296759912236439
  @DF-RHF Final Energy:  -550.72968249341750
    Total Energy =                       -550.7296824934174992
  Charge       = -1
  Multiplicity = 1
  Basis Set: AUG-CC-PVTZ
    Blend: AUG-CC-PVTZ
  Basis Set: (AUG-CC-PVTZ AUX)
    Blend: AUG-CC-PVTZ-JKFIT

    Orbital Energies (a.u.)
    -----------------------

    Doubly Occupied:

       1A    -20.321141     2A    -15.443873     3A    -11.161721
       4A    -11.161638     5A    -11.146038     6A    -11.134659
       7A    -11.114234     8A    -11.114154     9A    -11.102025
      10A    -11.101868    11A    -11.077232    12A    -11.063785
      13A    -11.063573    14A     -1.151787    15A     -1.141827
      16A     -1.017149    17A     -0.957729    18A     -0.918149
      19A     -0.869421    20A     -0.839287    21A     -0.742506
      22A     -0.734876    23A     -0.675414    24A     -0.651790
      25A     -0.596948    26A     -0.549111    27A     -0.538201
      28A     -0.511536    29A     -0.486465    30A     -0.483245
      31A     -0.478517    32A     -0.439840    33A     -0.430894
      34A     -0.422632    35A     -0.398713    36A     -0.382227
      37A     -0.376237    38A     -0.348099    39A     -0.318972
      40A     -0.307542    41A     -0.249206    42A     -0.238321
      43A     -0.227090    44A     -0.203515    45A     -0.108471

  @DF-RHF Final Energy:  -550.72968252237081

   => Energetics <=

    Nuclear Repulsion Energy =            682.3983703722407199
    One-Electron Energy =               -2114.6527902416073630
    Two-Electron Energy =                 881.5247373469959484
    DFT Exchange-Correlation Energy =       0.0000000000000000
    Empirical Dispersion Energy =           0.0000000000000000
    PCM Polarization Energy =               0.0000000000000000
    EFP Energy =                            0.0000000000000000
    Total Energy =                       -550.7296825223708083
  Basis Set: (AUG-CC-PVTZ AUX)
    Blend: AUG-CC-PVTZ-RI
    Molecular point group: c1
  Basis Set: AUG-CC-PVTZ
    Blend: AUG-CC-PVTZ
  Basis Set: (AUG-CC-PVTZ AUX)
    Blend: AUG-CC-PVTZ-JKFIT
  Basis Set: (AUG-CC-PVTZ AUX)
    Blend: AUG-CC-PVTZ-JKFIT
	 Reference Energy          =    -550.7296825223708083 [Eh]
	 Singles Energy            =      -0.0000000000000001 [Eh]
	 Same-Spin Energy          =      -0.6123953144889419 [Eh]
	 Opposite-Spin Energy      =      -1.8367103229603463 [Eh]
	 Correlation Energy        =      -2.4491056374492883 [Eh]
	 Total Energy              =    -553.1787881598201011 [Eh]

	 ================> DF-SCS-MP2 Energies <==================
	-----------------------------------------------------------
	 SCS Same-Spin Scale       =       0.3333333333333333 [-]
	 SCS Opposite-Spin Scale   =       1.2000000000000000 [-]
	 SCS Same-Spin Energy      =      -0.2041317714963140 [Eh]
	 SCS Opposite-Spin Energy  =      -2.2040523875524154 [Eh]
	 SCS Correlation Energy    =      -2.4081841590487292 [Eh]
	 SCS Total Energy          =    -553.1378666814194958 [Eh]
	-----------------------------------------------------------

  -Total Gradient:
     Atom            X                  Y                   Z
    ------   -----------------  -----------------  -----------------
       1        0.001020241083     0.001828961071     0.000069166926
       2        0.000024880611    -0.000037118136     0.000001963733
       3        0.000000090597     0.000034302397    -0.000000585606
       4        0.000011235831     0.000059798463     0.000000917149
       5       -0.000475815107    -0.001889228730     0.000857275109
       6        0.000038472745     0.000055647810     0.000001595324
       7        0.000091685912     0.000167954334    -0.000057698431
       8       -0.000063376927    -0.000165161482     0.000103942815
       9       -0.001746601225    -0.003720780577     0.000335009838
      10        0.001192490728     0.003746164713    -0.001274818886
      11       -0.000077290282    -0.000130165765     0.000009533394
      12       -0.000036268668     0.000006634981    -0.000027665340
      13        0.000045083792     0.000039886120    -0.000014216657
      14       -0.000005147501    -0.000001933103    -0.000003669723
      15       -0.000012744021    -0.000001949033     0.000000600921
      16       -0.000006167663    -0.000001729840    -0.000006913317
      17        0.000013114724     0.000006655973     0.000009161663
      18       -0.000008732529    -0.000008004344     0.000019396050
      19       -0.000005149318     0.000023245463    -0.000013893543
      20       -0.000012115094    -0.000058702100     0.000021185876
      21        0.000012112306     0.000045521798    -0.000030287298

  **** Optimization is complete! (in 7 steps) ****
    Final optimized geometry and variables:
    Molecular point group: c1

    Geometry (in Angstrom), charge = -1, multiplicity = 1:

    C           -1.320493607773     0.700506512545    -0.539743330782
    C           -0.306082394822     0.146096345288     1.549502789709
    C           -2.378754080774     1.282696033758     0.119955260158
    C           -1.366415993249     0.709983567103     2.221644980241
    C            0.765588373703    -1.016564615744    -1.835714998870
    C            2.158360940338    -0.539108623687     0.005495771673
    C            1.867543876144    -1.564442943904    -2.465916977002
    C            3.200414441345    -1.118420638845    -0.694964020854
    C           -0.248940341996     0.106183089773     0.146803473082
    C            0.874299776391    -0.461170913787    -0.552580847460
    C           -2.480061844163     1.321581997743     1.551932037918
    N            3.091792817991    -1.633809690388    -1.926511529217
    O           -3.452525410844     1.845950536241     2.163523117818
    H           -1.297105729970     0.736292521445    -1.622319500848
    H            0.486095143844    -0.319966817480     2.122871014583
    H           -3.176472507069     1.751233807436    -0.440868312578
    H           -1.392003579731     0.696952412514     3.303152224887
    H           -0.192565906331    -1.037962574299    -2.333306201804
    H            2.347434611744    -0.119994040987     0.982431972200
    H            1.760357743765    -1.989006515802    -3.456426818452
    H            4.185700653896    -1.161788508515    -0.247548003111

*** Psi4 exiting successfully. Buy a developer a beer!
