                               Psi4 1.1 release

  ==> Input File <==

--------------------------------------------------------------------------

memory 5 Gb

molecule phepyrFOH_cation {
  symmetry C1
  1 1
  C      1.885   -1.036   -0.112
  C      0.807   -0.463   0.561
  C      4.830   -1.443   -0.930
  C      4.321   -3.578   0.063
  C      1.800   -1.079   2.676
  C      5.894   -2.040   -1.592
  C      5.398   -4.120   -0.624
  C      2.921   -1.631   0.608
  C      4.038   -2.225   -0.095
  C      0.764   -0.484   1.955
  C      2.878   -1.652   2.002
  N      6.144   -3.345   -1.422
  O      -0.289   0.076   2.612
  F      3.866   -2.220   2.709
  H      1.904   -1.012   -1.199
  H      0.002   -0.002   -0.006
  H      4.632   -0.385   -1.072
  H      3.719   -4.212   0.708
  H      1.772   -1.099   3.762
  H      6.561   -1.511   -2.259
  H      5.691   -5.159   -0.561
  H      6.930   -3.764   -1.918
  H      -1.093   0.016   2.071
  units Angstrom
}

dih_string = "2 10 13 23 30"
set optking fixed_dihedral = $dih_string

optimize('MP2/aug-cc-PVTZ')
--------------------------------------------------------------------------

    Molecular point group: c1
  Charge       = 1
  Multiplicity = 1
  Basis Set: AUG-CC-PVTZ
    Blend: AUG-CC-PVTZ
  Basis Set: (AUG-CC-PVTZ AUX)
    Blend: AUG-CC-PVTZ-JKFIT
  @DF-RHF Final Energy:  -650.55812384597834
    Total Energy =                       -650.5581238459783435
  Basis Set: (AUG-CC-PVTZ AUX)
    Blend: AUG-CC-PVTZ-RI
    Molecular point group: c1
  Basis Set: AUG-CC-PVTZ
    Blend: AUG-CC-PVTZ
  Basis Set: (AUG-CC-PVTZ AUX)
    Blend: AUG-CC-PVTZ-JKFIT
  Basis Set: (AUG-CC-PVTZ AUX)
    Blend: AUG-CC-PVTZ-JKFIT
	 Reference Energy          =    -650.5581238459783435 [Eh]
	 Singles Energy            =      -0.0000000000000002 [Eh]
	 Same-Spin Energy          =      -0.6690487216621767 [Eh]
	 Opposite-Spin Energy      =      -2.0138073186113927 [Eh]
	 Correlation Energy        =      -2.6828560402735699 [Eh]
	 Total Energy              =    -653.2409798862519210 [Eh]
	 SCS Total Energy          =    -653.1977088688661297 [Eh]
  @DF-RHF Final Energy:  -650.56361550450276
    Total Energy =                       -650.5636155045026499
  @DF-RHF Final Energy:  -650.56521023142295
    Total Energy =                       -650.5652102314229523
  @DF-RHF Final Energy:  -650.56571296170330
    Total Energy =                       -650.5657129617031842
  @DF-RHF Final Energy:  -650.56608287333233
    Total Energy =                       -650.5660828733323342
  @DF-RHF Final Energy:  -650.56650722817096
    Total Energy =                       -650.5665072281708490
  @DF-RHF Final Energy:  -650.56694537597491
    Total Energy =                       -650.5669453759749103
  @DF-RHF Final Energy:  -650.56734857736751
    Total Energy =                       -650.5673485773675111
  @DF-RHF Final Energy:  -650.56768806992636
    Total Energy =                       -650.5676880699263620
  @DF-RHF Final Energy:  -650.56795308838764
    Total Energy =                       -650.5679530883876396
  @DF-RHF Final Energy:  -650.56813500894248
    Total Energy =                       -650.5681350089423631
  @DF-RHF Final Energy:  -650.56823379299169
    Total Energy =                       -650.5682337929915775
  @DF-RHF Final Energy:  -650.56824378010583
    Total Energy =                       -650.5682437801058313
  @DF-RHF Final Energy:  -650.56825001462050
    Total Energy =                       -650.5682500146206166
  @DF-RHF Final Energy:  -650.56826736492781
    Total Energy =                       -650.5682673649278058
  @DF-RHF Final Energy:  -650.56827394955587
    Total Energy =                       -650.5682739495557598
  @DF-RHF Final Energy:  -650.56827640348070
    Total Energy =                       -650.5682764034806951
  @DF-RHF Final Energy:  -650.56825303957089
    Total Energy =                       -650.5682530395708909
  @DF-RHF Final Energy:  -650.56825571881018
    Total Energy =                       -650.5682557188101782
  @DF-RHF Final Energy:  -650.56825961064021
    Total Energy =                       -650.5682596106403253
  @DF-RHF Final Energy:  -650.56820069505216
    Total Energy =                       -650.5682006950521554
  @DF-RHF Final Energy:  -650.56823918247210
    Total Energy =                       -650.5682391824720980
  @DF-RHF Final Energy:  -650.56812512228385
    Total Energy =                       -650.5681251222838455
  @DF-RHF Final Energy:  -650.56820096068407
    Total Energy =                       -650.5682009606841802
  @DF-RHF Final Energy:  -650.56824911669014
    Total Energy =                       -650.5682491166901400
  @DF-RHF Final Energy:  -650.56825961670734
    Total Energy =                       -650.5682596167073370
  @DF-RHF Final Energy:  -650.56824892050213
    Total Energy =                       -650.5682489205021284
  @DF-RHF Final Energy:  -650.56827067560209
    Total Energy =                       -650.5682706756019797
  Charge       = 1
  Multiplicity = 1
  Basis Set: AUG-CC-PVTZ
    Blend: AUG-CC-PVTZ
  Basis Set: (AUG-CC-PVTZ AUX)
    Blend: AUG-CC-PVTZ-JKFIT

    Orbital Energies (a.u.)
    -----------------------

    Doubly Occupied:

       1A    -26.443718     2A    -20.712858     3A    -15.830538
       4A    -11.481153     5A    -11.479135     6A    -11.471513
       7A    -11.454524     8A    -11.446122     9A    -11.412805
      10A    -11.409108    11A    -11.390615    12A    -11.383110
      13A    -11.359869    14A    -11.356283    15A     -1.764036
      16A     -1.536092    17A     -1.508694    18A     -1.324222
      19A     -1.275963    20A     -1.238719    21A     -1.170795
      22A     -1.160736    23A     -1.065647    24A     -1.064119
      25A     -0.990871    26A     -0.979131    27A     -0.961256
      28A     -0.899029    29A     -0.882096    30A     -0.865402
      31A     -0.834901    32A     -0.833230    33A     -0.819370
      34A     -0.807482    35A     -0.792758    36A     -0.773547
      37A     -0.767469    38A     -0.756952    39A     -0.735967
      40A     -0.720107    41A     -0.705780    42A     -0.683077
      43A     -0.673835    44A     -0.641447    45A     -0.635376
      46A     -0.575325    47A     -0.538661    48A     -0.478385
      49A     -0.449333

  @DF-RHF Final Energy:  -650.56827119699176

   => Energetics <=

    Nuclear Repulsion Energy =            831.2851268556523792
    One-Electron Energy =               -2522.6244782778339868
    Two-Electron Energy =                1040.7710802251897348
    DFT Exchange-Correlation Energy =       0.0000000000000000
    Empirical Dispersion Energy =           0.0000000000000000
    PCM Polarization Energy =               0.0000000000000000
    EFP Energy =                            0.0000000000000000
    Total Energy =                       -650.5682711969918728
  Basis Set: (AUG-CC-PVTZ AUX)
    Blend: AUG-CC-PVTZ-RI
    Molecular point group: c1
  Basis Set: AUG-CC-PVTZ
    Blend: AUG-CC-PVTZ
  Basis Set: (AUG-CC-PVTZ AUX)
    Blend: AUG-CC-PVTZ-JKFIT
  Basis Set: (AUG-CC-PVTZ AUX)
    Blend: AUG-CC-PVTZ-JKFIT
	 Reference Energy          =    -650.5682711969917591 [Eh]
	 Singles Energy            =      -0.0000000000000002 [Eh]
	 Same-Spin Energy          =      -0.6687955524120215 [Eh]
	 Opposite-Spin Energy      =      -2.0122299490902389 [Eh]
	 Correlation Energy        =      -2.6810255015022602 [Eh]
	 Total Energy              =    -653.2492966984940495 [Eh]

	 ================> DF-SCS-MP2 Energies <==================
	-----------------------------------------------------------
	 SCS Same-Spin Scale       =       0.3333333333333333 [-]
	 SCS Opposite-Spin Scale   =       1.2000000000000000 [-]
	 SCS Same-Spin Energy      =      -0.2229318508040072 [Eh]
	 SCS Opposite-Spin Energy  =      -2.4146759389082866 [Eh]
	 SCS Correlation Energy    =      -2.6376077897122938 [Eh]
	 SCS Total Energy          =    -653.2058789867040787 [Eh]
	-----------------------------------------------------------

  -Total Gradient:
     Atom            X                  Y                   Z
    ------   -----------------  -----------------  -----------------
       1        0.000033643519     0.000048373444     0.000056594799
       2        0.001943391280     0.002281741655     0.000744164210
       3        0.000031862291    -0.000018266967     0.000002698929
       4       -0.000047443755    -0.000033876656     0.000027672508
       5        0.000048537043    -0.000036288742    -0.000053357174
       6       -0.000062792875     0.000007864828    -0.000001678883
       7       -0.000048170160     0.000050521728     0.000054350097
       8       -0.000067852806    -0.000053747947    -0.000068493419
       9        0.000049737034     0.000057020067    -0.000003813904
      10       -0.003511150808    -0.004595268215    -0.001025868293
      11       -0.000037350977     0.000015461526     0.000009395516
      12        0.000014211402     0.000012185652    -0.000002546974
      13        0.003091543348     0.005976035241    -0.000537594619
      14        0.000058052412     0.000022639929    -0.000055922670
      15        0.000009695291     0.000005717397     0.000012566028
      16        0.000011682555    -0.000043580137     0.000029215204
      17        0.000007716269    -0.000000176279     0.000022544367
      18       -0.000000882827    -0.000002086152    -0.000013777666
      19       -0.000013208948     0.000007830683     0.000008586959
      20       -0.000000221052    -0.000027635871     0.000031620904
      21        0.000003408130     0.000013378993    -0.000017811490
      22       -0.000011590338     0.000007706789     0.000007104277
      23       -0.001502816029    -0.003695550957     0.000774351310

  **** Optimization is complete! (in 29 steps) ****
    Final optimized geometry and variables:
    Molecular point group: c1

    Geometry (in Angstrom), charge = 1, multiplicity = 1:

    C           -1.175565969012     1.037488924074    -0.695418591119
    C           -2.246409596976     1.597629674469    -0.034247209733
    C            1.441112257560     0.300035139012    -1.824140941417
    C            1.382326865303    -1.641032318455    -0.431361491362
    C           -1.557573837545     0.499459082581     1.996164898942
    C            2.493396149095    -0.244759012432    -2.515391632173
    C            2.435091807262    -2.157933425722    -1.144591973559
    C           -0.270460372444     0.190006964838    -0.045123385608
    C            0.849000711738    -0.385833833676    -0.755470374160
    C           -2.449058720164     1.319995709279     1.317075319812
    C           -0.504175336502    -0.050080457207     1.309761441234
    N            2.960323139455    -1.452203618030    -2.158787505571
    O           -3.430611486452     1.882793565829     2.046391451626
    F            0.359385590152    -0.819369233455     1.993780906116
    H           -1.055438633529     1.233962115102    -1.749932123649
    H           -2.930274281502     2.244379739388    -0.562003875237
    H            1.101300813034     1.283883142737    -2.102440030475
    H            0.965828319680    -2.230210429280     0.366297226218
    H           -1.687438295608     0.301092102235     3.047413467692
    H            2.988770493724     0.248661220109    -3.334675377605
    H            2.873328497951    -3.120847024250    -0.942042667605
    H            3.739838219346    -1.843678037077    -2.671730695029
    H           -4.191282477057     2.088330678746     1.491721707200

*** Psi4 exiting successfully. Buy a developer a beer!
