                               Psi4 1.1 release

  ==> Input File <==

--------------------------------------------------------------------------

memory 5 Gb

molecule phepyrOH_zwitterion {
  symmetry C1
  0 1
  C      1.885   -1.036   -0.112
  C      2.878   -1.652   2.002
  C      0.807   -0.463   0.561
  C      1.800   -1.079   2.676
  C      5.012   -1.414   -0.667
  C      4.145   -3.610   -0.187
  C      6.074   -2.012   -1.330
  C      5.229   -4.152   -0.863
  C      2.921   -1.631   0.608
  C      4.040   -2.226   -0.090
  C      0.764   -0.484   1.955
  N      6.151   -3.348   -1.409
  O      -0.227   0.042   2.574
  H      1.904   -1.011   -1.199
  H      3.678   -2.112   2.577
  H      0.011   -0.006   -0.025
  H      1.791   -1.108   3.764
  H      4.956   -0.331   -0.607
  H      3.401   -4.267   0.253
  H      6.874   -1.462   -1.806
  H      5.392   -5.214   -0.987
  H      6.939   -3.767   -1.902
  units Angstrom
}

dih_string = "1 9 10 5 75"
set optking fixed_dihedral = $dih_string

optimize('MP2/aug-cc-PVTZ')
--------------------------------------------------------------------------

    Molecular point group: c1
  Charge       = 0
  Multiplicity = 1
  Basis Set: AUG-CC-PVTZ
    Blend: AUG-CC-PVTZ
  Basis Set: (AUG-CC-PVTZ AUX)
    Blend: AUG-CC-PVTZ-JKFIT

    Orbital Energies (a.u.)
    -----------------------

    Doubly Occupied:

       1A    -20.390707     2A    -15.736440     3A    -11.381817
       4A    -11.381699     5A    -11.326765     6A    -11.307127
       7A    -11.306998     8A    -11.213375     9A    -11.210889
      10A    -11.210853    11A    -11.194990    12A    -11.164027
      13A    -11.163991    14A     -1.413073    15A     -1.222413
      16A     -1.192768    17A     -1.134894    18A     -1.097514
      19A     -0.990834    20A     -0.974076    21A     -0.960399
      22A     -0.904300    23A     -0.862828    24A     -0.792006
      25A     -0.774593    26A     -0.761273    27A     -0.728240
      28A     -0.696774    29A     -0.693568    30A     -0.678375
      31A     -0.619478    32A     -0.606153    33A     -0.598950
      34A     -0.589198    35A     -0.545590    36A     -0.517907
      37A     -0.486498    38A     -0.474213    39A     -0.450478
      40A     -0.449120    41A     -0.436120    42A     -0.387342
      43A     -0.307928    44A     -0.303975    45A     -0.212644

  @DF-RHF Final Energy:  -551.18920067598447

   => Energetics <=

    Nuclear Repulsion Energy =            700.1923500337169344
    One-Electron Energy =               -2137.0567011854327575
    Two-Electron Energy =                 885.6751504757312432
    DFT Exchange-Correlation Energy =       0.0000000000000000
    Empirical Dispersion Energy =           0.0000000000000000
    PCM Polarization Energy =               0.0000000000000000
    EFP Energy =                            0.0000000000000000
    Total Energy =                       -551.1892006759844662
  Basis Set: (AUG-CC-PVTZ AUX)
    Blend: AUG-CC-PVTZ-RI
    Molecular point group: c1

    Geometry (in Angstrom), charge = 0, multiplicity = 1:

       Center              X                  Y                   Z               Mass
    ------------   -----------------  -----------------  -----------------  -----------------
           C         -1.297244481628     0.733744334429    -0.557114964934    12.000000000000
           C         -0.304244481628     0.117744334429     1.556885035066    12.000000000000
           C         -2.375244481628     1.306744334429     0.115885035066    12.000000000000
           C         -1.382244481628     0.690744334429     2.230885035066    12.000000000000
           C          1.829755518372     0.355744334429    -1.112114964934    12.000000000000
           C          0.962755518372    -1.840255665571    -0.632114964934    12.000000000000
           C          2.891755518372    -0.242255665571    -1.775114964934    12.000000000000
           C          2.046755518372    -2.382255665571    -1.308114964934    12.000000000000
           C         -0.261244481628     0.138744334429     0.162885035066    12.000000000000
           C          0.857755518372    -0.456255665571    -0.535114964934    12.000000000000
           C         -2.418244481628     1.285744334429     1.509885035066    12.000000000000
           N          2.968755518372    -1.578255665571    -1.854114964934    14.003074004780
           O         -3.409244481628     1.811744334429     2.128885035066    15.994914619560
           H         -1.278244481628     0.758744334429    -1.644114964934     1.007825032070
           H          0.495755518372    -0.342255665571     2.131885035066     1.007825032070
           H         -3.171244481628     1.763744334429    -0.470114964934     1.007825032070
           H         -1.391244481628     0.661744334429     3.318885035066     1.007825032070
           H          1.773755518372     1.438744334429    -1.052114964934     1.007825032070
           H          0.218755518372    -2.497255665571    -0.192114964934     1.007825032070
           H          3.691755518372     0.307744334429    -2.251114964934     1.007825032070
           H          2.209755518372    -3.444255665571    -1.432114964934     1.007825032070
           H          3.756755518372    -1.997255665571    -2.347114964934     1.007825032070

  Basis Set: AUG-CC-PVTZ
    Blend: AUG-CC-PVTZ
  Basis Set: (AUG-CC-PVTZ AUX)
    Blend: AUG-CC-PVTZ-JKFIT
  Basis Set: (AUG-CC-PVTZ AUX)
    Blend: AUG-CC-PVTZ-JKFIT
	 Reference Energy          =    -551.1892006759844662 [Eh]
	 Singles Energy            =      -0.0000000000000008 [Eh]
	 Same-Spin Energy          =      -0.6057560785677432 [Eh]
	 Opposite-Spin Energy      =      -1.8346551095873598 [Eh]
	 Correlation Energy        =      -2.4404111881551040 [Eh]
	 Total Energy              =    -553.6296118641395196 [Eh]

	 ================> DF-SCS-MP2 Energies <==================
	-----------------------------------------------------------
	 SCS Same-Spin Scale       =       0.3333333333333333 [-]
	 SCS Opposite-Spin Scale   =       1.2000000000000000 [-]
	 SCS Same-Spin Energy      =      -0.2019186928559144 [Eh]
	 SCS Opposite-Spin Energy  =      -2.2015861315048317 [Eh]
	 SCS Correlation Energy    =      -2.4035048243607471 [Eh]
	 SCS Total Energy          =    -553.5927055003452324 [Eh]
	-----------------------------------------------------------

  -Total Gradient:
     Atom            X                  Y                   Z
    ------   -----------------  -----------------  -----------------
       1        0.013038793639    -0.020994593365    -0.000753300710
       2        0.016825847382     0.005139309985    -0.017912985729
       3       -0.023914970123     0.012492195659     0.042455308805
       4       -0.044368658852     0.023656983386     0.001068440667
       5       -0.016609212639     0.007147296728     0.021199375757
       6       -0.023921112910     0.014317796691     0.003750358301
       7        0.003972837957    -0.018374591169    -0.000059868972
       8        0.013192506358     0.010155162075    -0.010450545335
       9       -0.012813818927     0.006850384722     0.007931992828
      10        0.024071778732    -0.013124773441    -0.014686434606
      11        0.060225420782    -0.031830031486    -0.038143440972
      12       -0.007258700145     0.003196905724     0.004433398604
      13       -0.011827599947     0.006215681667     0.007465513412
      14       -0.001895201486     0.001305682459    -0.002827991070
      15        0.000876996910    -0.000727354215     0.003330028564
      16       -0.002038944418     0.003044388865    -0.008687284479
      17        0.004130732422    -0.004142043967     0.007032703019
      18        0.000934304607     0.006415708728    -0.001134442071
      19       -0.002918587305    -0.005043537080     0.002391810789
      20        0.001622802449     0.000597770185    -0.002231705167
      21        0.001673874302    -0.002527774708     0.000262245004
      22        0.007000911217    -0.003770567442    -0.004433176641

*** Psi4 exiting successfully. Buy a developer a beer!
