                               Psi4 1.1 release

  ==> Input File <==

--------------------------------------------------------------------------

molecule phepyr {
  symmetry C1
  0 1
  C      1.885   -1.036   -0.112
  C      0.807   -0.463   0.561
  C      2.921   -1.631   0.608
  C      0.764   -0.484   1.955
  C      2.878   -1.652   2.002
  C      2.935   -1.088   4.857
  C      0.531   -1.133   4.781
  C      2.838   -1.109   6.239
  C      0.542   -1.151   6.167
  C      1.800   -1.079   2.676
  C      1.755   -1.101   4.122
  N      1.668   -1.140   6.915
  H      1.917   -1.021   -1.198
  H      -0.001   -0.002   0.000
  H      3.760   -2.079   0.084
  H      -0.084   -0.033   2.466
  H      3.693   -2.120   2.550
  H      3.908   -1.062   4.378
  H      -0.410   -1.144   4.241
  H      3.729   -1.098   6.858
  H      -0.386   -1.178   6.729
  units Angstrom
}

dih_string = "4 10 11 6 210"
set optking fixed_dihedral = $dih_string

optimize('MP2/aug-cc-PVTZ')
--------------------------------------------------------------------------

    Molecular point group: c1
  Charge       = 0
  Multiplicity = 1
  Basis Set: AUG-CC-PVTZ
    Blend: AUG-CC-PVTZ
  Basis Set: (AUG-CC-PVTZ AUX)
    Blend: AUG-CC-PVTZ-JKFIT
  @DF-RHF Final Energy:  -476.39551374748771
    Total Energy =                       -476.3955137474877120
  Basis Set: (AUG-CC-PVTZ AUX)
    Blend: AUG-CC-PVTZ-RI
    Molecular point group: c1
  Basis Set: AUG-CC-PVTZ
    Blend: AUG-CC-PVTZ
  Basis Set: (AUG-CC-PVTZ AUX)
    Blend: AUG-CC-PVTZ-JKFIT
  Basis Set: (AUG-CC-PVTZ AUX)
    Blend: AUG-CC-PVTZ-JKFIT
	 Reference Energy          =    -476.3955137474877120 [Eh]
	 Singles Energy            =      -0.0000000000000001 [Eh]
	 Same-Spin Energy          =      -0.5353927463999929 [Eh]
	 Opposite-Spin Energy      =      -1.6436147187565255 [Eh]
	 Correlation Energy        =      -2.1790074651565186 [Eh]
	 Total Energy              =    -478.5745212126442425 [Eh]
	 SCS Total Energy          =    -478.5463156587955496 [Eh]
  @DF-RHF Final Energy:  -476.40091981847866
    Total Energy =                       -476.4009198184786555
  @DF-RHF Final Energy:  -476.40173670785737
    Total Energy =                       -476.4017367078573670
  @DF-RHF Final Energy:  -476.40172534519934
    Total Energy =                       -476.4017253451993383
  Charge       = 0
  Multiplicity = 1
  Basis Set: AUG-CC-PVTZ
    Blend: AUG-CC-PVTZ
  Basis Set: (AUG-CC-PVTZ AUX)
    Blend: AUG-CC-PVTZ-JKFIT

    Orbital Energies (a.u.)
    -----------------------

    Doubly Occupied:

       1A    -15.561772     2A    -11.272209     3A    -11.272193
       4A    -11.266175     5A    -11.253837     6A    -11.244842
       7A    -11.244765     8A    -11.243996     9A    -11.243136
      10A    -11.242467    11A    -11.237099    12A    -11.237040
      13A     -1.258964    14A     -1.176106    15A     -1.108479
      16A     -1.037532    17A     -1.026289    18A     -1.019259
      19A     -0.882181    20A     -0.868605    21A     -0.829321
      22A     -0.809530    23A     -0.735638    24A     -0.685734
      25A     -0.673840    26A     -0.662826    27A     -0.631918
      28A     -0.626711    29A     -0.604858    30A     -0.591700
      31A     -0.583868    32A     -0.548383    33A     -0.526795
      34A     -0.514464    35A     -0.511830    36A     -0.496412
      37A     -0.418359    38A     -0.406407    39A     -0.350130
      40A     -0.347834    41A     -0.323305

  @DF-RHF Final Energy:  -476.40170368320128

   => Energetics <=

    Nuclear Repulsion Energy =            606.2869346106182320
    One-Electron Energy =               -1846.2236568843045461
    Two-Electron Energy =                 763.5350185904851514
    DFT Exchange-Correlation Energy =       0.0000000000000000
    Empirical Dispersion Energy =           0.0000000000000000
    PCM Polarization Energy =               0.0000000000000000
    EFP Energy =                            0.0000000000000000
    Total Energy =                       -476.4017036832012764
  Basis Set: (AUG-CC-PVTZ AUX)
    Blend: AUG-CC-PVTZ-RI
    Molecular point group: c1
  Basis Set: AUG-CC-PVTZ
    Blend: AUG-CC-PVTZ
  Basis Set: (AUG-CC-PVTZ AUX)
    Blend: AUG-CC-PVTZ-JKFIT
  Basis Set: (AUG-CC-PVTZ AUX)
    Blend: AUG-CC-PVTZ-JKFIT
	 Reference Energy          =    -476.4017036832012764 [Eh]
	 Singles Energy            =      -0.0000000000000003 [Eh]
	 Same-Spin Energy          =      -0.5344093734028682 [Eh]
	 Opposite-Spin Energy      =      -1.6412484740844773 [Eh]
	 Correlation Energy        =      -2.1756578474873458 [Eh]
	 Total Energy              =    -478.5773615306886200 [Eh]

	 ================> DF-SCS-MP2 Energies <==================
	-----------------------------------------------------------
	 SCS Same-Spin Scale       =       0.3333333333333333 [-]
	 SCS Opposite-Spin Scale   =       1.2000000000000000 [-]
	 SCS Same-Spin Energy      =      -0.1781364578009560 [Eh]
	 SCS Opposite-Spin Energy  =      -1.9694981689013726 [Eh]
	 SCS Correlation Energy    =      -2.1476346267023292 [Eh]
	 SCS Total Energy          =    -478.5493383099035896 [Eh]
	-----------------------------------------------------------

  -Total Gradient:
     Atom            X                  Y                   Z
    ------   -----------------  -----------------  -----------------
       1       -0.000023809129    -0.000030063307    -0.000020816727
       2        0.000033825096     0.000046461620    -0.000035687796
       3       -0.000000221363     0.000005948402    -0.000027383660
       4       -0.000555429294    -0.000986023841     0.000020342611
       5       -0.000015160360    -0.000033600203     0.000051215339
       6        0.000048278124    -0.001057200970    -0.000061280662
       7       -0.000006815482    -0.000079319517    -0.000052195015
       8       -0.000026180898    -0.000243783075     0.000045704724
       9        0.000014914041     0.000258338536     0.000057983899
      10        0.000848703957     0.000900934370     0.000059955448
      11       -0.000330956526     0.001231046397    -0.000002765953
      12        0.000005042236    -0.000012044896     0.000023876747
      13       -0.000001652943     0.000000649755    -0.000010787070
      14       -0.000024328439    -0.000002749060    -0.000002303654
      15        0.000024174387     0.000007418728     0.000004437594
      16       -0.000001759285    -0.000003075528    -0.000010614246
      17        0.000003907917    -0.000001657494    -0.000007965659
      18        0.000003524713     0.000016902331    -0.000006693244
      19       -0.000004488304    -0.000015390024    -0.000007552144
      20       -0.000011821369     0.000078105564    -0.000003521829
      21        0.000020252920    -0.000080897788    -0.000013948704

  **** Optimization is complete! (in 5 steps) ****
    Final optimized geometry and variables:
    Molecular point group: c1

    Geometry (in Angstrom), charge = 0, multiplicity = 1:

    C            0.104865750009     0.040743595899    -3.552212030798
    C           -0.960140528932     0.625329233547    -2.880162309473
    C            1.130210490094    -0.553129181697    -2.828633274393
    C           -0.997324947177     0.617225224578    -1.494394117541
    C            1.090706116334    -0.560326423297    -1.442879212078
    C            1.140305130008     0.021904983767     1.478226849089
    C           -1.225398783512    -0.052631606909     1.399245874979
    C            1.046656645195    -0.014770405871     2.860097502647
    C           -1.221821527799    -0.083883548696     2.784464927326
    C            0.028775918589     0.027859270558    -0.755569603805
    C           -0.018806612503     0.006505766820     0.706904791991
    N           -0.110478783246    -0.066216693647     3.523910036910
    H            0.134789233064     0.046681624835    -4.630953766076
    H           -1.757913601201     1.094767656334    -3.435017603895
    H            1.955870464264    -1.019724522383    -3.343650515632
    H           -1.814395325195     1.100002817037    -0.979752515648
    H            1.875970559112    -1.052599400109    -0.889295017598
    H            2.110796968858     0.091071481101     1.011011682609
    H           -2.163034260646    -0.101315572448     0.866994764563
    H            1.943443847672     0.005716776235     3.463605599997
    H           -2.155831986415    -0.135514108253     3.326489405523

*** Psi4 exiting successfully. Buy a developer a beer!
