                              Psi4 1.0.0 Driver

  ==> Input File <==

--------------------------------------------------------------------------

memory 1000 mb

molecule butane {
  symmetry C1
  0 1
  H      1.604   0.760   -8.260
  H      1.745   2.388   -8.880
  H      2.043   1.024   -9.930
  C      2.142   1.395   -8.932
  H      4.169   2.051   -9.210
  H      3.731   1.788   -7.539
  C      3.631   1.416   -8.537
  H      3.808   -0.509   -9.473
  H      5.269   0.034   -8.685
  C      4.203   -0.012   -8.612
  H      4.207   -1.783   -7.396
  H      2.743   -0.837   -7.270
  H      4.204   -0.294   -6.482
  C      3.809   -0.791   -7.344
  units Angstrom
}

dih_string = "4 7 10 14 280"
set optking fixed_dihedral = $dih_string

optimize('MP2/6-31G(d)')
--------------------------------------------------------------------------

    Molecular point group: c1
  Charge       = 0
  Multiplicity = 1
  Basis Set: 6-31G(D)
  Basis Set:
  @DF-RHF Final Energy:  -157.29127481342178
    Total Energy =                       -157.2912748134217509
  Basis Set:
    Molecular point group: c1
  Basis Set: 6-31G(D)
  Basis Set:
  Basis Set:
	 Reference Energy          =    -157.2912748134217793 [Eh]
	 Singles Energy            =      -0.0000000000000000 [Eh]
	 Same-Spin Energy          =      -0.1246870306383219 [Eh]
	 Opposite-Spin Energy      =      -0.4205176530724336 [Eh]
	 Correlation Energy        =      -0.5452046837107555 [Eh]
	 Total Energy              =    -157.8364794971325296 [Eh]
	 SCS Total Energy          =    -157.8374583406548197 [Eh]
  Basis Set: 6-31G(D)
  Basis Set:
  @DF-RHF Final Energy:  -157.29438695075561
    Total Energy =                       -157.2943869507556656
  Basis Set:
  Basis Set: 6-31G(D)
  Basis Set:
  @DF-RHF Final Energy:  -157.29532168401187
    Total Energy =                       -157.2953216840118671
  @DF-RHF Final Energy:  -157.29565307689106
    Total Energy =                       -157.2956530768910000
  @DF-RHF Final Energy:  -157.29567199641448
    Total Energy =                       -157.2956719964145691
	 Singles Energy            =      -0.0000000000000000 [Eh]
	 Same-Spin Energy          =      -0.1245511125874251 [Eh]
	 Opposite-Spin Energy      =      -0.4224458313436255 [Eh]
	 Correlation Energy        =      -0.5469969439310506 [Eh]
	 Total Energy              =    -157.8426689403455327 [Eh]
	 SCS Total Energy          =    -157.8441240315559639 [Eh]
  Charge       = 0
  Multiplicity = 1
  Basis Set: 6-31G(D)
  Basis Set:

    Orbital Energies (a.u.)
    -----------------------

    Doubly Occupied:

       1A    -11.215850     2A    -11.215260     3A    -11.210076
       4A    -11.210076     5A     -1.070008     6A     -0.976090
       7A     -0.868387     8A     -0.778195     9A     -0.621609
      10A     -0.618267    11A     -0.574955    12A     -0.535231
      13A     -0.525442    14A     -0.504109    15A     -0.465071
      16A     -0.456057    17A     -0.454364

  @DF-RHF Final Energy:  -157.29569432651448

   => Energetics <=

    Nuclear Repulsion Energy =            132.2700658595168193
    One-Electron Energy =                -472.5334256094608349
    Two-Electron Energy =                 182.9676654234295654
    DFT Exchange-Correlation Energy =       0.0000000000000000
    Empirical Dispersion Energy =           0.0000000000000000
    PCM Polarization Energy =               0.0000000000000000
    EFP Energy =                            0.0000000000000000
    Total Energy =                       -157.2956943265144503
  Basis Set:
    Molecular point group: c1
  Basis Set: 6-31G(D)
  Basis Set:
  Basis Set:
	 Reference Energy          =    -157.2956943265144787 [Eh]
	 Singles Energy            =      -0.0000000000000000 [Eh]
	 Same-Spin Energy          =      -0.1245483285036226 [Eh]
	 Opposite-Spin Energy      =      -0.4224274273189460 [Eh]
	 Correlation Energy        =      -0.5469757558225686 [Eh]
	 Total Energy              =    -157.8426700823370368 [Eh]

	 ================> DF-SCS-MP2 Energies <==================
	-----------------------------------------------------------
	 SCS Same-Spin Scale       =       0.3333333333333333 [-]
	 SCS Opposite-Spin Scale   =       1.2000000000000000 [-]
	 SCS Same-Spin Energy      =      -0.0415161095012075 [Eh]
	 SCS Opposite-Spin Energy  =      -0.5069129127827352 [Eh]
	 SCS Correlation Energy    =      -0.5484290222839427 [Eh]
	 SCS Total Energy          =    -157.8441233487984334 [Eh]
	-----------------------------------------------------------

  -Total Gradient:
     Atom            X                  Y                   Z
    ------   -----------------  -----------------  -----------------
       1        0.000008920102     0.000006046575    -0.000003258180
       2       -0.000012602262     0.000000695068    -0.000002624674
       3       -0.000007240904     0.000006462424     0.000007349127
       4        0.000545676925     0.000226256704    -0.001942166597
       5       -0.000009002675    -0.000001603849     0.000020159785
       6       -0.000006856649     0.000000135345    -0.000002077876
       7       -0.000108160544     0.000004266863     0.003028938456
       8       -0.000001558214    -0.000003526383     0.000005687274
       9       -0.000018832711    -0.000010078289    -0.000007165480
      10       -0.002059016784    -0.000925375206    -0.002022829092
      11       -0.000003131302    -0.000007544747     0.000009955953
      12        0.000009968580     0.000002060846    -0.000005815368
      13       -0.000004328281    -0.000011637035    -0.000002342917
      14        0.001666164721     0.000713841683     0.000916189589

  **** Optimization is complete! (in 6 steps) ****
    Final optimized geometry and variables:
    Molecular point group: c1

    Geometry (in Angstrom), charge = 0, multiplicity = 1:

    H           -1.912971290038     0.318932348857     0.043911792593
    H           -1.701464665882     1.946070204614    -0.606358702293
    H           -1.425201449480     0.538428401034    -1.640476174383
    C           -1.300560647672     0.928754947192    -0.626193310461
    H            0.733851251470     1.534444710187    -0.919006270742
    H            0.296497736216     1.355239925400     0.770193386514
    C            0.170527633062     0.903916048458    -0.221311296415
    H            0.440511455260    -1.042212037673    -1.112446122714
    H            1.862548050845    -0.431676104908    -0.286705493436
    C            0.771019987949    -0.504014310234    -0.215924578870
    H            0.851456573470    -2.307093199791     1.001095484082
    H           -0.662739829355    -1.412919625717     1.152185783783
    H            0.802414317972    -0.802933444286     1.929682011111
    C            0.419070819421    -1.303148732765     1.035539669290

*** Psi4 exiting successfully. Buy a developer a beer!
