                              Psi4 1.0.0 Driver

  ==> Input File <==

--------------------------------------------------------------------------

memory 1000 mb

molecule butane {
  symmetry C1
  0 1
  H      1.604   0.760   -8.260
  H      1.745   2.388   -8.880
  H      2.043   1.024   -9.930
  C      2.142   1.395   -8.932
  H      4.169   2.051   -9.210
  H      3.731   1.788   -7.539
  C      3.631   1.416   -8.537
  H      3.808   -0.509   -9.473
  H      5.269   0.034   -8.685
  C      4.203   -0.012   -8.612
  H      4.207   -1.783   -7.396
  H      2.743   -0.837   -7.270
  H      4.204   -0.294   -6.482
  C      3.809   -0.791   -7.344
  units Angstrom
}

dih_string = "4 7 10 14 280"
set optking fixed_dihedral = $dih_string

optimize('MP2/6-31G(d)')
--------------------------------------------------------------------------

    Molecular point group: c1
  Charge       = 0
  Multiplicity = 1
  Basis Set: 6-31G(D)
  Basis Set:
  @DF-RHF Final Energy:  -157.29127481342172
    Total Energy =                       -157.2912748134217793
  Basis Set:
    Molecular point group: c1
  Basis Set: 6-31G(D)
  Basis Set:
  Basis Set:
	 Reference Energy          =    -157.2912748134217225 [Eh]
	 Singles Energy            =      -0.0000000000000000 [Eh]
	 Same-Spin Energy          =      -0.1246870306383213 [Eh]
	 Opposite-Spin Energy      =      -0.4205176530724279 [Eh]
	 Correlation Energy        =      -0.5452046837107493 [Eh]
	 Total Energy              =    -157.8364794971324727 [Eh]
	 SCS Total Energy          =    -157.8374583406547345 [Eh]
  Basis Set: 6-31G(D)
  Basis Set:
  @DF-RHF Final Energy:  -157.29438695189455
    Total Energy =                       -157.2943869518944950
  Basis Set:
  Basis Set: 6-31G(D)
  Basis Set:
  @DF-RHF Final Energy:  -157.29532168164482
    Total Energy =                       -157.2953216816449640
  @DF-RHF Final Energy:  -157.29565307723661
    Total Energy =                       -157.2956530772366932
  @DF-RHF Final Energy:  -157.29567199618384
    Total Energy =                       -157.2956719961839269
	 Singles Energy            =      -0.0000000000000000 [Eh]
	 Same-Spin Energy          =      -0.1245511126690505 [Eh]
	 Opposite-Spin Energy      =      -0.4224458316971309 [Eh]
	 Correlation Energy        =      -0.5469969443661814 [Eh]
	 Total Energy              =    -157.8426689405500269 [Eh]
	 SCS Total Energy          =    -157.8441240317767438 [Eh]
  Charge       = 0
  Multiplicity = 1
  Basis Set: 6-31G(D)
  Basis Set:

    Orbital Energies (a.u.)
    -----------------------

    Doubly Occupied:

       1A    -11.215850     2A    -11.215260     3A    -11.210076
       4A    -11.210076     5A     -1.070008     6A     -0.976090
       7A     -0.868387     8A     -0.778195     9A     -0.621609
      10A     -0.618267    11A     -0.574955    12A     -0.535231
      13A     -0.525442    14A     -0.504109    15A     -0.465071
      16A     -0.456057    17A     -0.454364

  @DF-RHF Final Energy:  -157.29569432689246

   => Energetics <=

    Nuclear Repulsion Energy =            132.2700656263279768
    One-Electron Energy =                -472.5334251475384804
    Two-Electron Energy =                 182.9676651943181582
    DFT Exchange-Correlation Energy =       0.0000000000000000
    Empirical Dispersion Energy =           0.0000000000000000
    PCM Polarization Energy =               0.0000000000000000
    EFP Energy =                            0.0000000000000000
    Total Energy =                       -157.2956943268923737
  Basis Set:
    Molecular point group: c1
  Basis Set: 6-31G(D)
  Basis Set:
  Basis Set:
	 Reference Energy          =    -157.2956943268924590 [Eh]
	 Singles Energy            =      -0.0000000000000000 [Eh]
	 Same-Spin Energy          =      -0.1245483283894806 [Eh]
	 Opposite-Spin Energy      =      -0.4224274271848452 [Eh]
	 Correlation Energy        =      -0.5469757555743258 [Eh]
	 Total Energy              =    -157.8426700824667819 [Eh]

	 ================> DF-SCS-MP2 Energies <==================
	-----------------------------------------------------------
	 SCS Same-Spin Scale       =       0.3333333333333333 [-]
	 SCS Opposite-Spin Scale   =       1.2000000000000000 [-]
	 SCS Same-Spin Energy      =      -0.0415161094631602 [Eh]
	 SCS Opposite-Spin Energy  =      -0.5069129126218143 [Eh]
	 SCS Correlation Energy    =      -0.5484290220849745 [Eh]
	 SCS Total Energy          =    -157.8441233489774334 [Eh]
	-----------------------------------------------------------

  -Total Gradient:
     Atom            X                  Y                   Z
    ------   -----------------  -----------------  -----------------
       1        0.000008918745     0.000006046807    -0.000003258354
       2       -0.000012602784     0.000000695373    -0.000002624818
       3       -0.000007240088     0.000006462525     0.000007349321
       4        0.000545674834     0.000226257102    -0.001942165676
       5       -0.000009002107    -0.000001603816     0.000020158979
       6       -0.000006857144     0.000000134411    -0.000002078121
       7       -0.000108158555     0.000004267797     0.003028937657
       8       -0.000001558886    -0.000003525992     0.000005688011
       9       -0.000018831999    -0.000010077912    -0.000007165221
      10       -0.002059014628    -0.000925374663    -0.002022829660
      11       -0.000003131433    -0.000007544618     0.000009956306
      12        0.000009968617     0.000002059997    -0.000005814528
      13       -0.000004328178    -0.000011636900    -0.000002344123
      14        0.001666163608     0.000713839887     0.000916190227

  **** Optimization is complete! (in 6 steps) ****
    Final optimized geometry and variables:
    Molecular point group: c1

    Geometry (in Angstrom), charge = 0, multiplicity = 1:

    H           -1.912971250836     0.318932683403     0.043912204566
    H           -1.701464431363     1.946070691746    -0.606357836757
    H           -1.425201612077     0.538429149724    -1.640475765906
    C           -1.300560595370     0.928755370407    -0.626192804716
    H            0.733851361377     1.534444888047    -0.919005888701
    H            0.296498077512     1.355239629010     0.770193781417
    C            0.170527748813     0.903916097281    -0.221311027215
    H            0.440511143827    -1.042211734418    -1.112446534183
    H            1.862547947004    -0.431676299410    -0.286705887267
    C            0.771019882905    -0.504014361353    -0.215924856213
    H            0.851456378945    -2.307093663319     1.001094603717
    H           -0.662739890454    -1.412919951836     1.152185390393
    H            0.802414432961    -0.802934207847     1.929681626291
    C            0.419070755875    -1.303149154305     1.035539171767

*** Psi4 exiting successfully. Buy a developer a beer!
