                               Psi4 1.1 release

  ==> Input File <==

--------------------------------------------------------------------------

memory 5 Gb

molecule phepyrOH_neutral {
  symmetry C1
  0 1
  C      1.885   -1.036   -0.112
  C      2.878   -1.652   2.002
  C      0.807   -0.463   0.561
  C      1.800   -1.079   2.676
  C      3.862   -2.773   -1.356
  C      5.298   -2.250   0.501
  C      4.965   -3.329   -1.983
  C      6.337   -2.829   -0.209
  C      2.921   -1.631   0.608
  C      4.040   -2.225   -0.090
  C      0.764   -0.484   1.955
  N      6.202   -3.372   -1.440
  O      -0.288   0.076   2.612
  H      1.904   -1.012   -1.199
  H      3.678   -2.112   2.578
  H      0.003   -0.001   -0.006
  H      1.772   -1.098   3.762
  H      2.895   -2.772   -1.850
  H      5.475   -1.833   1.487
  H      4.879   -3.768   -2.972
  H      7.337   -2.875   0.208
  H      -0.988   -0.582   2.749
  units Angstrom
}

dih_string = "3 11 13 22 90"
set optking fixed_dihedral = $dih_string

optimize('MP2/aug-cc-PVTZ')
--------------------------------------------------------------------------

    Molecular point group: c1
  Charge       = 0
  Multiplicity = 1
  Basis Set: AUG-CC-PVTZ
    Blend: AUG-CC-PVTZ
  Basis Set: (AUG-CC-PVTZ AUX)
    Blend: AUG-CC-PVTZ-JKFIT
  @DF-RHF Final Energy:  -551.28160190323342
    Total Energy =                       -551.2816019032334225
  Basis Set: (AUG-CC-PVTZ AUX)
    Blend: AUG-CC-PVTZ-RI
    Molecular point group: c1
  Basis Set: AUG-CC-PVTZ
    Blend: AUG-CC-PVTZ
  Basis Set: (AUG-CC-PVTZ AUX)
    Blend: AUG-CC-PVTZ-JKFIT
  Basis Set: (AUG-CC-PVTZ AUX)
    Blend: AUG-CC-PVTZ-JKFIT
	 Reference Energy          =    -551.2816019032334225 [Eh]
	 Singles Energy            =      -0.0000000000000003 [Eh]
	 Same-Spin Energy          =      -0.6046430017503076 [Eh]
	 Opposite-Spin Energy      =      -1.8302893105570428 [Eh]
	 Correlation Energy        =      -2.4349323123073510 [Eh]
	 Total Energy              =    -553.7165342155407188 [Eh]
	 SCS Total Energy          =    -553.6794967431519581 [Eh]
  @DF-RHF Final Energy:  -551.28738240530379
    Total Energy =                       -551.2873824053037879
  @DF-RHF Final Energy:  -551.28856966895705
    Total Energy =                       -551.2885696689570523
  @DF-RHF Final Energy:  -551.28856502385929
    Total Energy =                       -551.2885650238592916
  @DF-RHF Final Energy:  -551.28867858402123
    Total Energy =                       -551.2886785840212269
  @DF-RHF Final Energy:  -551.28875886233243
    Total Energy =                       -551.2887588623324291
  Charge       = 0
  Multiplicity = 1
  Basis Set: AUG-CC-PVTZ
    Blend: AUG-CC-PVTZ
  Basis Set: (AUG-CC-PVTZ AUX)
    Blend: AUG-CC-PVTZ-JKFIT

    Orbital Energies (a.u.)
    -----------------------

    Doubly Occupied:

       1A    -20.587476     2A    -15.561969     3A    -11.304381
       4A    -11.272840     5A    -11.272760     6A    -11.266426
       7A    -11.252387     8A    -11.250181     9A    -11.249829
      10A    -11.242314    11A    -11.242130    12A    -11.237366
      13A    -11.237239    14A     -1.401072    15A     -1.259308
      16A     -1.176091    17A     -1.106462    18A     -1.039476
      19A     -1.030701    20A     -1.012898    21A     -0.879624
      22A     -0.872212    23A     -0.840556    24A     -0.812343
      25A     -0.744946    26A     -0.723929    27A     -0.683498
      28A     -0.662941    29A     -0.648768    30A     -0.647750
      31A     -0.635170    32A     -0.606528    33A     -0.596797
      34A     -0.594241    35A     -0.550327    36A     -0.540761
      37A     -0.533363    38A     -0.517282    39A     -0.507404
      40A     -0.482015    41A     -0.418557    42A     -0.402312
      43A     -0.354678    44A     -0.349294    45A     -0.320896

  @DF-RHF Final Energy:  -551.28877903530747

   => Energetics <=

    Nuclear Repulsion Energy =            697.2959429713216650
    One-Electron Energy =               -2131.3104506613844933
    Two-Electron Energy =                 882.7257286547553576
    DFT Exchange-Correlation Energy =       0.0000000000000000
    Empirical Dispersion Energy =           0.0000000000000000
    PCM Polarization Energy =               0.0000000000000000
    EFP Energy =                            0.0000000000000000
    Total Energy =                       -551.2887790353074706
  Basis Set: (AUG-CC-PVTZ AUX)
    Blend: AUG-CC-PVTZ-RI
    Molecular point group: c1
  Basis Set: AUG-CC-PVTZ
    Blend: AUG-CC-PVTZ
  Basis Set: (AUG-CC-PVTZ AUX)
    Blend: AUG-CC-PVTZ-JKFIT
  Basis Set: (AUG-CC-PVTZ AUX)
    Blend: AUG-CC-PVTZ-JKFIT
	 Reference Energy          =    -551.2887790353074706 [Eh]
	 Singles Energy            =      -0.0000000000000007 [Eh]
	 Same-Spin Energy          =      -0.6035080096511612 [Eh]
	 Opposite-Spin Energy      =      -1.8279771769973565 [Eh]
	 Correlation Energy        =      -2.4314851866485188 [Eh]
	 Total Energy              =    -553.7202642219559721 [Eh]

	 ================> DF-SCS-MP2 Energies <==================
	-----------------------------------------------------------
	 SCS Same-Spin Scale       =       0.3333333333333333 [-]
	 SCS Opposite-Spin Scale   =       1.2000000000000000 [-]
	 SCS Same-Spin Energy      =      -0.2011693365503871 [Eh]
	 SCS Opposite-Spin Energy  =      -2.1935726123968275 [Eh]
	 SCS Correlation Energy    =      -2.3947419489472157 [Eh]
	 SCS Total Energy          =    -553.6835209842546419 [Eh]
	-----------------------------------------------------------

  -Total Gradient:
     Atom            X                  Y                   Z
    ------   -----------------  -----------------  -----------------
       1       -0.000023485638    -0.000006827531    -0.000011237771
       2       -0.000008340576    -0.000012957067     0.000020707045
       3        0.000093983929     0.000152237146     0.000019895185
       4       -0.000005963403     0.000002714340     0.000011939590
       5        0.000004414604     0.000000450777    -0.000013525408
       6        0.000009821577    -0.000013487504     0.000005121145
       7       -0.000015031438    -0.000007382491     0.000004128161
       8        0.000002209345     0.000024071296     0.000003143071
       9        0.000035074550     0.000008944079    -0.000020155254
      10       -0.000031118737     0.000015716673     0.000023352518
      11       -0.000121346569    -0.000231745467     0.000015044562
      12        0.000011074419    -0.000012186039    -0.000003867114
      13       -0.000066877502     0.000153607670    -0.000250576545
      14        0.000006257019    -0.000006614609     0.000007995866
      15       -0.000004233119     0.000004257810    -0.000011292485
      16        0.000006254668     0.000002739349     0.000002418111
      17       -0.000000251804    -0.000000429729    -0.000004730720
      18        0.000010427762    -0.000000883177     0.000000808564
      19        0.000005003368    -0.000005200022    -0.000013879960
      20       -0.000002600452     0.000004550755    -0.000003809708
      21       -0.000000520937    -0.000001594617     0.000004721908
      22        0.000095248934    -0.000069981637     0.000213799230

  **** Optimization is complete! (in 7 steps) ****
    Final optimized geometry and variables:
    Molecular point group: c1

    Geometry (in Angstrom), charge = 0, multiplicity = 1:

    C           -1.240572601049     0.768744457842    -0.558048681007
    C           -0.312232571005     0.052217784763     1.530749273645
    C           -2.313900746411     1.335575724331     0.110119146024
    C           -1.385273271570     0.613796421924     2.203780438182
    C            0.753135863401    -1.089898724973    -1.807028194771
    C            2.193741352573    -0.458490886919    -0.034644660678
    C            1.855051279994    -1.640334168294    -2.441499518364
    C            3.236193838557    -1.035657353029    -0.741811165787
    C           -0.224806252522     0.117843473192     0.140860281746
    C            0.907803997474    -0.477019664341    -0.566940954425
    C           -2.392294658973     1.248551461961     1.492201198472
    N            3.088644640723    -1.623801504758    -1.931248755462
    O           -3.431422981272     1.859358680205     2.166321223029
    H           -1.173841351451     0.860780741250    -1.631951164822
    H            0.453727581981    -0.465250529341     2.089055252114
    H           -3.089072912768     1.859640138218    -0.427488633935
    H           -1.455009394815     0.563251245026     3.279440681531
    H           -0.221877305985    -1.160894001493    -2.265060064272
    H            2.388540363933     0.024027738342     0.911207368975
    H            1.741539811909    -2.123565234911    -3.401919034828
    H            4.238831118799    -1.019510826986    -0.337797566569
    H           -4.160199154006     1.237262543105     2.241388385552

*** Psi4 exiting successfully. Buy a developer a beer!
