                               Psi4 1.1 release

  ==> Input File <==

--------------------------------------------------------------------------

memory 1000 mb

molecule butane {
  symmetry C1
  0 1
  H      1.604   0.760   -8.260
  H      1.745   2.388   -8.880
  H      2.043   1.024   -9.930
  C      2.142   1.395   -8.932
  H      4.169   2.051   -9.210
  H      3.731   1.788   -7.539
  C      3.631   1.416   -8.537
  H      3.665   -0.647   -7.940
  H      4.104   -0.384   -9.610
  C      4.203   -0.012   -8.612
  H      5.780   0.212   -7.171
  H      6.197   0.771   -8.773
  H      6.132   -0.942   -8.435
  C      5.691   0.009   -8.218
  units Angstrom
}

dih_string = "7 10 14 13 190"
set optking fixed_dihedral = $dih_string

optimize('MP2/aug-cc-pvtz')
--------------------------------------------------------------------------

    Molecular point group: c1
  Charge       = 0
  Multiplicity = 1
  Basis Set: AUG-CC-PVTZ
    Blend: AUG-CC-PVTZ
  Basis Set: (AUG-CC-PVTZ AUX)
    Blend: AUG-CC-PVTZ-JKFIT
  @DF-RHF Final Energy:  -157.35246128968402
    Total Energy =                       -157.3524612896840154
  Basis Set: (AUG-CC-PVTZ AUX)
    Blend: AUG-CC-PVTZ-RI
    Molecular point group: c1
  Basis Set: AUG-CC-PVTZ
    Blend: AUG-CC-PVTZ
  Basis Set: (AUG-CC-PVTZ AUX)
    Blend: AUG-CC-PVTZ-JKFIT
  Basis Set: (AUG-CC-PVTZ AUX)
    Blend: AUG-CC-PVTZ-JKFIT
	 Reference Energy          =    -157.3524612896840154 [Eh]
	 Singles Energy            =      -0.0000000000000000 [Eh]
	 Same-Spin Energy          =      -0.1653738628441069 [Eh]
	 Opposite-Spin Energy      =      -0.6387101014503561 [Eh]
	 Correlation Energy        =      -0.8040839642944629 [Eh]
	 Total Energy              =    -158.1565452539784644 [Eh]
	 SCS Total Energy          =    -158.1740380323724651 [Eh]
  @DF-RHF Final Energy:  -157.35508939483145
    Total Energy =                       -157.3550893948314524
  @DF-RHF Final Energy:  -157.35587601252377
    Total Energy =                       -157.3558760125237654
  @DF-RHF Final Energy:  -157.35610815701213
    Total Energy =                       -157.3561081570121303
  Charge       = 0
  Multiplicity = 1
  Basis Set: AUG-CC-PVTZ
    Blend: AUG-CC-PVTZ
  Basis Set: (AUG-CC-PVTZ AUX)
    Blend: AUG-CC-PVTZ-JKFIT

    Orbital Energies (a.u.)
    -----------------------

    Doubly Occupied:

       1A    -11.211399     2A    -11.210757     3A    -11.206050
       4A    -11.206024     5A     -1.074437     6A     -0.982189
       7A     -0.860951     8A     -0.787944     9A     -0.641161
      10A     -0.585623    11A     -0.577253    12A     -0.568276
      13A     -0.514255    14A     -0.494468    15A     -0.469919
      16A     -0.461209    17A     -0.456598

  @DF-RHF Final Energy:  -157.35610194488470

   => Energetics <=

    Nuclear Repulsion Energy =            131.5505635397285289
    One-Electron Energy =                -471.1963057303052551
    Two-Electron Energy =                 182.2896402456919986
    DFT Exchange-Correlation Energy =       0.0000000000000000
    Empirical Dispersion Energy =           0.0000000000000000
    PCM Polarization Energy =               0.0000000000000000
    EFP Energy =                            0.0000000000000000
    Total Energy =                       -157.3561019448846992
  Basis Set: (AUG-CC-PVTZ AUX)
    Blend: AUG-CC-PVTZ-RI
    Molecular point group: c1
  Basis Set: AUG-CC-PVTZ
    Blend: AUG-CC-PVTZ
  Basis Set: (AUG-CC-PVTZ AUX)
    Blend: AUG-CC-PVTZ-JKFIT
  Basis Set: (AUG-CC-PVTZ AUX)
    Blend: AUG-CC-PVTZ-JKFIT
	 Reference Energy          =    -157.3561019448846992 [Eh]
	 Singles Energy            =      -0.0000000000000000 [Eh]
	 Same-Spin Energy          =      -0.1654611380423495 [Eh]
	 Opposite-Spin Energy      =      -0.6391960111951625 [Eh]
	 Correlation Energy        =      -0.8046571492375120 [Eh]
	 Total Energy              =    -158.1607590941221986 [Eh]

	 ================> DF-SCS-MP2 Energies <==================
	-----------------------------------------------------------
	 SCS Same-Spin Scale       =       0.3333333333333333 [-]
	 SCS Opposite-Spin Scale   =       1.2000000000000000 [-]
	 SCS Same-Spin Energy      =      -0.0551537126807832 [Eh]
	 SCS Opposite-Spin Energy  =      -0.7670352134341949 [Eh]
	 SCS Correlation Energy    =      -0.8221889261149781 [Eh]
	 SCS Total Energy          =    -158.1782908709996889 [Eh]
	-----------------------------------------------------------

  -Total Gradient:
     Atom            X                  Y                   Z
    ------   -----------------  -----------------  -----------------
       1       -0.000035518798    -0.000029842532     0.000028332150
       2       -0.000015334136     0.000042701960     0.000004958946
       3       -0.000021421924    -0.000016823559    -0.000050596277
       4        0.000134594320    -0.000032972205     0.000019254733
       5       -0.000001913263    -0.000010886848    -0.000011797826
       6       -0.000001521020    -0.000001579353     0.000039245712
       7        0.000278951065     0.000185782446    -0.001044613451
       8       -0.000021678274     0.000002135797     0.000054551981
       9        0.000006144594    -0.000006336388     0.000003478712
      10       -0.000270210087    -0.000103748427     0.001005547671
      11        0.000005524640    -0.000002719154     0.000066243580
      12        0.000024737843     0.000019056892     0.000001934309
      13        0.000389889311     0.000440265784    -0.001388444671
      14       -0.000472244272    -0.000485034411     0.001271904430

  **** Optimization is complete! (in 5 steps) ****
    Final optimized geometry and variables:
    Molecular point group: c1

    Geometry (in Angstrom), charge = 0, multiplicity = 1:

    H           -2.346343377125     0.062406473937     0.328010879041
    H           -2.199967517168     1.695772635272    -0.311037639088
    H           -1.917219916170     0.310055112281    -1.358726734416
    C           -1.776249188942     0.694916213538    -0.350154072399
    H            0.245790866483     1.353025168692    -0.648251555553
    H           -0.180215828264     1.099299589797     1.028391820136
    C           -0.306108988028     0.693503492634     0.023080117324
    H           -0.255776161450    -1.364686661307     0.611485409872
    H            0.203793008845    -1.077932933946    -1.050369165973
    C            0.308852604844    -0.691470414578    -0.035302344645
    H            1.890456728667    -0.480393248912     1.423296016246
    H            2.320735147537     0.062610739539    -0.191969889257
    H            2.243341625548    -1.655409315297     0.154659611245
    C            1.773119694659    -0.697348017416     0.363595032946

*** Psi4 exiting successfully. Buy a developer a beer!
