                               Psi4 1.1 release

  ==> Input File <==

--------------------------------------------------------------------------

memory 5 Gb

molecule phepyrOH_neutral {
  symmetry C1
  0 1
  C      1.885   -1.036   -0.112
  C      2.878   -1.652   2.002
  C      0.807   -0.463   0.561
  C      1.800   -1.079   2.676
  C      3.862   -2.773   -1.356
  C      5.298   -2.250   0.501
  C      4.965   -3.329   -1.983
  C      6.337   -2.829   -0.209
  C      2.921   -1.631   0.608
  C      4.040   -2.225   -0.090
  C      0.764   -0.484   1.955
  N      6.202   -3.372   -1.440
  O      -0.288   0.076   2.612
  H      1.904   -1.012   -1.199
  H      3.678   -2.112   2.578
  H      0.003   -0.001   -0.006
  H      1.772   -1.098   3.762
  H      2.895   -2.772   -1.850
  H      5.475   -1.833   1.487
  H      4.879   -3.768   -2.972
  H      7.337   -2.875   0.208
  H      -0.005   0.412   3.477
  units Angstrom
}

dih_string = "3 11 13 22 210"
set optking fixed_dihedral = $dih_string

optimize('MP2/aug-cc-PVTZ')
--------------------------------------------------------------------------

    Molecular point group: c1
  Charge       = 0
  Multiplicity = 1
  Basis Set: AUG-CC-PVTZ
    Blend: AUG-CC-PVTZ
  Basis Set: (AUG-CC-PVTZ AUX)
    Blend: AUG-CC-PVTZ-JKFIT
  @DF-RHF Final Energy:  -551.28445282788482
    Total Energy =                       -551.2844528278848202
  Basis Set: (AUG-CC-PVTZ AUX)
    Blend: AUG-CC-PVTZ-RI
    Molecular point group: c1
  Basis Set: AUG-CC-PVTZ
    Blend: AUG-CC-PVTZ
  Basis Set: (AUG-CC-PVTZ AUX)
    Blend: AUG-CC-PVTZ-JKFIT
  Basis Set: (AUG-CC-PVTZ AUX)
    Blend: AUG-CC-PVTZ-JKFIT
	 Reference Energy          =    -551.2844528278848202 [Eh]
	 Singles Energy            =      -0.0000000000000002 [Eh]
	 Same-Spin Energy          =      -0.6051229248766550 [Eh]
	 Opposite-Spin Energy      =      -1.8308050472141169 [Eh]
	 Correlation Energy        =      -2.4359279720907718 [Eh]
	 Total Energy              =    -553.7203807999756009 [Eh]
	 SCS Total Energy          =    -553.6831265261672570 [Eh]
  @DF-RHF Final Energy:  -551.29044132407876
    Total Energy =                       -551.2904413240787562
  @DF-RHF Final Energy:  -551.29182892243557
    Total Energy =                       -551.2918289224355703
  @DF-RHF Final Energy:  -551.29188129320073
    Total Energy =                       -551.2918812932007313
  @DF-RHF Final Energy:  -551.29200062126642
    Total Energy =                       -551.2920006212664248
  @DF-RHF Final Energy:  -551.29204020310556
    Total Energy =                       -551.2920402031055573
  @DF-RHF Final Energy:  -551.29203229782911
    Total Energy =                       -551.2920322978291097
  @DF-RHF Final Energy:  -551.29204006357418
    Total Energy =                       -551.2920400635741771
  @DF-RHF Final Energy:  -551.29202792550564
    Total Energy =                       -551.2920279255056357
  @DF-RHF Final Energy:  -551.29202272293674
    Total Energy =                       -551.2920227229367356
  @DF-RHF Final Energy:  -551.29203512404365
    Total Energy =                       -551.2920351240436503
  @DF-RHF Final Energy:  -551.29203405133035
    Total Energy =                       -551.2920340513303472
  Charge       = 0
  Multiplicity = 1
  Basis Set: AUG-CC-PVTZ
    Blend: AUG-CC-PVTZ
  Basis Set: (AUG-CC-PVTZ AUX)
    Blend: AUG-CC-PVTZ-JKFIT

    Orbital Energies (a.u.)
    -----------------------

    Doubly Occupied:

       1A    -20.598390     2A    -15.560129     3A    -11.311485
       4A    -11.271481     5A    -11.271359     6A    -11.265049
       7A    -11.252714     8A    -11.250817     9A    -11.247441
      10A    -11.243806    11A    -11.238345    12A    -11.235566
      13A    -11.235322    14A     -1.414839    15A     -1.257687
      16A     -1.175717    17A     -1.105657    18A     -1.039212
      19A     -1.030289    20A     -1.013062    21A     -0.881345
      22A     -0.872342    23A     -0.843196    24A     -0.812746
      25A     -0.748699    26A     -0.725858    27A     -0.684508
      28A     -0.662157    29A     -0.655008    30A     -0.636241
      31A     -0.626627    32A     -0.606555    33A     -0.601026
      34A     -0.593481    35A     -0.565470    36A     -0.545784
      37A     -0.533793    38A     -0.521078    39A     -0.507145
      40A     -0.491321    41A     -0.417008    42A     -0.397416
      43A     -0.356232    44A     -0.347937    45A     -0.312465

  @DF-RHF Final Energy:  -551.29203272587711

   => Energetics <=

    Nuclear Repulsion Energy =            697.7476360528502255
    One-Electron Energy =               -2132.1517217825844455
    Two-Electron Energy =                 883.1120530038569996
    DFT Exchange-Correlation Energy =       0.0000000000000000
    Empirical Dispersion Energy =           0.0000000000000000
    PCM Polarization Energy =               0.0000000000000000
    EFP Energy =                            0.0000000000000000
    Total Energy =                       -551.2920327258771067
  Basis Set: (AUG-CC-PVTZ AUX)
    Blend: AUG-CC-PVTZ-RI
    Molecular point group: c1
  Basis Set: AUG-CC-PVTZ
    Blend: AUG-CC-PVTZ
  Basis Set: (AUG-CC-PVTZ AUX)
    Blend: AUG-CC-PVTZ-JKFIT
  Basis Set: (AUG-CC-PVTZ AUX)
    Blend: AUG-CC-PVTZ-JKFIT
	 Reference Energy          =    -551.2920327258771067 [Eh]
	 Singles Energy            =      -0.0000000000000002 [Eh]
	 Same-Spin Energy          =      -0.6039921718117026 [Eh]
	 Opposite-Spin Energy      =      -1.8282056336897206 [Eh]
	 Correlation Energy        =      -2.4321978055014233 [Eh]
	 Total Energy              =    -553.7242305313785664 [Eh]

	 ================> DF-SCS-MP2 Energies <==================
	-----------------------------------------------------------
	 SCS Same-Spin Scale       =       0.3333333333333333 [-]
	 SCS Opposite-Spin Scale   =       1.2000000000000000 [-]
	 SCS Same-Spin Energy      =      -0.2013307239372342 [Eh]
	 SCS Opposite-Spin Energy  =      -2.1938467604276646 [Eh]
	 SCS Correlation Energy    =      -2.3951774843648987 [Eh]
	 SCS Total Energy          =    -553.6872102102420286 [Eh]
	-----------------------------------------------------------

  -Total Gradient:
     Atom            X                  Y                   Z
    ------   -----------------  -----------------  -----------------
       1        0.000005726195    -0.000000159509     0.000004806701
       2        0.000001927076     0.000003442017    -0.000007569705
       3        0.001114954943     0.001922255317     0.000175740771
       4        0.000020494788     0.000036281292    -0.000001624826
       5       -0.000003692840    -0.000000674348     0.000012578483
       6       -0.000012683538     0.000010050205    -0.000003274144
       7       -0.000000818346     0.000052606706    -0.000024410151
       8       -0.000015955181    -0.000049264750     0.000037962081
       9       -0.000009458261    -0.000000392594    -0.000002666985
      10        0.000008551276    -0.000002994165    -0.000004575386
      11       -0.001485315846    -0.002280503151    -0.000522610394
      12        0.000013929225    -0.000005059447    -0.000010010154
      13       -0.000391782594    -0.002345219070     0.001458192796
      14       -0.000003827620     0.000006422324    -0.000014915989
      15        0.000005315765    -0.000009409160     0.000013354100
      16       -0.000004413968     0.000004460502    -0.000006136456
      17        0.000000687830    -0.000002592535     0.000007830415
      18       -0.000011338408    -0.000009585678    -0.000007271056
      19        0.000009269132     0.000011154852     0.000008933599
      20       -0.000002232245    -0.000019740849     0.000008082878
      21        0.000005512072     0.000018799008    -0.000011155091
      22        0.000755150538     0.002660123036    -0.001111261480

  **** Optimization is complete! (in 13 steps) ****
    Final optimized geometry and variables:
    Molecular point group: c1

    Geometry (in Angstrom), charge = 0, multiplicity = 1:

    C           -1.241533104255     0.765218439014    -0.560365034985
    C           -0.316909643141     0.060782141367     1.530587218322
    C           -2.311976024854     1.342460257079     0.100080834699
    C           -1.394697873461     0.619613192339     2.198017110128
    C            0.757888262749    -1.091996584568    -1.802346708533
    C            2.191816567665    -0.470893521936    -0.021679746342
    C            1.860525555973    -1.646675953116    -2.431878329242
    C            3.234972233391    -1.053410954693    -0.723207266556
    C           -0.224460214965     0.118341387733     0.141441541125
    C            0.908296781893    -0.481301411532    -0.560470727957
    C           -2.395876257406     1.262729222120     1.482613976344
    N            3.091409106325    -1.638183939836    -1.914812292065
    O           -3.484570048101     1.827392962492     2.085563118387
    H           -1.174864073677     0.852778909283    -1.634641865566
    H            0.442592870074    -0.458703607713     2.095790890258
    H           -3.086756404735     1.863410257634    -0.440442680126
    H           -1.466970014344     0.542651873551     3.273520674440
    H           -0.214919335633    -1.158494211187    -2.265718104372
    H            2.384380906055     0.009531700608     0.925773031231
    H            1.749537784343    -2.127766588214    -3.393686548573
    H            4.235318990485    -1.043345725685    -0.313218239965
    H           -3.235830439974     2.127405897028     2.964479837566

*** Psi4 exiting successfully. Buy a developer a beer!
