                               Psi4 1.1 release

  ==> Input File <==

--------------------------------------------------------------------------

memory 1000 mb

molecule butane {
  symmetry C1
  0 1
  H      2.627   1.284   -10.432
  H      2.941   2.921   -9.907
  H      4.244   1.937   -10.529
  C      3.339   1.928   -9.960
  H      4.344   2.061   -8.066
  H      2.726   1.408   -7.967
  C      3.631   1.416   -8.537
  H      3.665   -0.647   -7.940
  H      4.104   -0.384   -9.610
  C      4.203   -0.012   -8.612
  H      6.088   -0.983   -8.270
  H      5.791   0.381   -7.220
  H      6.230   0.644   -8.890
  C      5.691   0.009   -8.218
  units Angstrom
}

dih_string = "14 10 7 4 110"
set optking fixed_dihedral = $dih_string

optimize('MP2/aug-cc-pvtz')
--------------------------------------------------------------------------

    Molecular point group: c1
  Charge       = 0
  Multiplicity = 1
  Basis Set: AUG-CC-PVTZ
    Blend: AUG-CC-PVTZ
  Basis Set: (AUG-CC-PVTZ AUX)
    Blend: AUG-CC-PVTZ-JKFIT
  @DF-RHF Final Energy:  -157.34706037227849
    Total Energy =                       -157.3470603722784915
  Basis Set: (AUG-CC-PVTZ AUX)
    Blend: AUG-CC-PVTZ-RI
    Molecular point group: c1
  Basis Set: AUG-CC-PVTZ
    Blend: AUG-CC-PVTZ
  Basis Set: (AUG-CC-PVTZ AUX)
    Blend: AUG-CC-PVTZ-JKFIT
  Basis Set: (AUG-CC-PVTZ AUX)
    Blend: AUG-CC-PVTZ-JKFIT
	 Reference Energy          =    -157.3470603722784915 [Eh]
	 Singles Energy            =      -0.0000000000000001 [Eh]
	 Same-Spin Energy          =      -0.1656125227801918 [Eh]
	 Opposite-Spin Energy      =      -0.6396866033137797 [Eh]
	 Correlation Energy        =      -0.8052991260939716 [Eh]
	 Total Energy              =    -158.1523594983724763 [Eh]
	 SCS Total Energy          =    -158.1698884705151045 [Eh]
  @DF-RHF Final Energy:  -157.34974078723499
    Total Energy =                       -157.3497407872349925
  @DF-RHF Final Energy:  -157.35059476515298
    Total Energy =                       -157.3505947651529766
  @DF-RHF Final Energy:  -157.35085704611720
    Total Energy =                       -157.3508570461171985
  @DF-RHF Final Energy:  -157.35085275887428
    Total Energy =                       -157.3508527588742822
  @DF-RHF Final Energy:  -157.35086243028150
    Total Energy =                       -157.3508624302814951
  Charge       = 0
  Multiplicity = 1
  Basis Set: AUG-CC-PVTZ
    Blend: AUG-CC-PVTZ
  Basis Set: (AUG-CC-PVTZ AUX)
    Blend: AUG-CC-PVTZ-JKFIT

    Orbital Energies (a.u.)
    -----------------------

    Doubly Occupied:

       1A    -11.211178     2A    -11.210588     3A    -11.206672
       4A    -11.206667     5A     -1.071921     6A     -0.980873
       7A     -0.863234     8A     -0.786188     9A     -0.630035
      10A     -0.606858    11A     -0.580266    12A     -0.548086
      13A     -0.513289    14A     -0.508271    15A     -0.467080
      16A     -0.454869    17A     -0.453937

  @DF-RHF Final Energy:  -157.35085914701236

   => Energetics <=

    Nuclear Repulsion Energy =            132.0848171805878053
    One-Electron Energy =                -472.2713265788506192
    Two-Electron Energy =                 182.8356502512504846
    DFT Exchange-Correlation Energy =       0.0000000000000000
    Empirical Dispersion Energy =           0.0000000000000000
    PCM Polarization Energy =               0.0000000000000000
    EFP Energy =                            0.0000000000000000
    Total Energy =                       -157.3508591470123577
  Basis Set: (AUG-CC-PVTZ AUX)
    Blend: AUG-CC-PVTZ-RI
    Molecular point group: c1
  Basis Set: AUG-CC-PVTZ
    Blend: AUG-CC-PVTZ
  Basis Set: (AUG-CC-PVTZ AUX)
    Blend: AUG-CC-PVTZ-JKFIT
  Basis Set: (AUG-CC-PVTZ AUX)
    Blend: AUG-CC-PVTZ-JKFIT
	 Reference Energy          =    -157.3508591470123577 [Eh]
	 Singles Energy            =      -0.0000000000000000 [Eh]
	 Same-Spin Energy          =      -0.1654638410469191 [Eh]
	 Opposite-Spin Energy      =      -0.6400461733372755 [Eh]
	 Correlation Energy        =      -0.8055100143841947 [Eh]
	 Total Energy              =    -158.1563691613965545 [Eh]

	 ================> DF-SCS-MP2 Energies <==================
	-----------------------------------------------------------
	 SCS Same-Spin Scale       =       0.3333333333333333 [-]
	 SCS Opposite-Spin Scale   =       1.2000000000000000 [-]
	 SCS Same-Spin Energy      =      -0.0551546136823064 [Eh]
	 SCS Opposite-Spin Energy  =      -0.7680554080047306 [Eh]
	 SCS Correlation Energy    =      -0.8232100216870369 [Eh]
	 SCS Total Energy          =    -158.1740691686993898 [Eh]
	-----------------------------------------------------------

  -Total Gradient:
     Atom            X                  Y                   Z
    ------   -----------------  -----------------  -----------------
       1       -0.000016328500    -0.000008955547    -0.000002688993
       2       -0.000005942223     0.000021445859     0.000000508086
       3        0.000019112829     0.000005416069    -0.000020387790
       4       -0.001408659339    -0.000638354004     0.000094200266
       5        0.000013176307    -0.000011815540    -0.000011220768
       6       -0.000005144115    -0.000013925370    -0.000006204198
       7        0.001778325140     0.000809799645     0.000466619172
       8       -0.000001178019     0.000011208787     0.000011661520
       9        0.000004678363     0.000019614401    -0.000004579167
      10        0.000015655020    -0.000010017962    -0.002009490645
      11        0.000009420194    -0.000020282928    -0.000003268647
      12       -0.000002276720     0.000000729886     0.000018420158
      13        0.000020543004     0.000011832209    -0.000013494689
      14       -0.000421381946    -0.000176695507     0.001479925695

  **** Optimization is complete! (in 7 steps) ****
    Final optimized geometry and variables:
    Molecular point group: c1

    Geometry (in Angstrom), charge = 0, multiplicity = 1:

    H           -1.644372576658     0.440846644864    -1.620372690181
    H           -1.309486142105     2.093946919587    -1.112660427258
    H           -0.013020673124     1.084455607651    -1.745296435368
    C           -0.912902673463     1.081234628725    -1.131648516368
    H            0.075673364601     1.255556511927     0.764334454271
    H           -1.525671976425     0.570439861375     0.850742782973
    C           -0.607668106919     0.568486932881     0.264517054457
    H           -0.541305965015    -1.491613888859     0.926775567624
    H           -0.098448599463    -1.265708940443    -0.744751173581
    C            0.007312440310    -0.836043604199     0.251763205489
    H            1.908563668792    -1.826961166315     0.597490029002
    H            1.588183671131    -0.465875468456     1.668687680562
    H            2.047095752169    -0.177953149434    -0.003927097292
    C            1.472339759916    -0.831913957745     0.650556241433

*** Psi4 exiting successfully. Buy a developer a beer!
