                               Psi4 1.1 release

  ==> Input File <==

--------------------------------------------------------------------------

memory 5000 mb

molecule butane {
  symmetry C1
  0 1
  H      1.746   2.387   -8.880
  H      2.043   1.023   -9.931
  H      1.604   0.760   -8.261
  C      2.142   1.395   -8.932
  H      4.169   2.051   -9.210
  H      3.731   1.788   -7.539
  C      3.631   1.416   -8.537
  H      3.665   -0.647   -7.940
  H      4.104   -0.384   -9.610
  C      4.203   -0.012   -8.612
  H      6.088   -0.983   -8.270
  H      5.791   0.381   -7.220
  H      6.230   0.644   -8.890
  C      5.691   0.009   -8.218
  units Angstrom
}

dih_string = "10 7 4 3 60"
set optking fixed_dihedral = $dih_string

optimize('MP2/aug-cc-pvtz')
--------------------------------------------------------------------------

    Molecular point group: c1
  Charge       = 0
  Multiplicity = 1
  Basis Set: AUG-CC-PVTZ
    Blend: AUG-CC-PVTZ
  Basis Set: (AUG-CC-PVTZ AUX)
    Blend: AUG-CC-PVTZ-JKFIT
  @DF-RHF Final Energy:  -157.35279963940499
    Total Energy =                       -157.3527996394049921
  Basis Set: (AUG-CC-PVTZ AUX)
    Blend: AUG-CC-PVTZ-RI
    Molecular point group: c1
  Basis Set: AUG-CC-PVTZ
    Blend: AUG-CC-PVTZ
  Basis Set: (AUG-CC-PVTZ AUX)
    Blend: AUG-CC-PVTZ-JKFIT
  Basis Set: (AUG-CC-PVTZ AUX)
    Blend: AUG-CC-PVTZ-JKFIT
	 Reference Energy          =    -157.3527996394049921 [Eh]
	 Singles Energy            =      -0.0000000000000000 [Eh]
	 Same-Spin Energy          =      -0.1653656340771790 [Eh]
	 Opposite-Spin Energy      =      -0.6386354750389853 [Eh]
	 Correlation Energy        =      -0.8040011091161643 [Eh]
	 Total Energy              =    -158.1568007485211638 [Eh]
	 SCS Total Energy          =    -158.1742840874775027 [Eh]
  @DF-RHF Final Energy:  -157.35543859830008
    Total Energy =                       -157.3554385983000827
  @DF-RHF Final Energy:  -157.35621488501565
    Total Energy =                       -157.3562148850156461
  @DF-RHF Final Energy:  -157.35641647992043
    Total Energy =                       -157.3564164799204264
  Charge       = 0
  Multiplicity = 1
  Basis Set: AUG-CC-PVTZ
    Blend: AUG-CC-PVTZ
  Basis Set: (AUG-CC-PVTZ AUX)
    Blend: AUG-CC-PVTZ-JKFIT

    Orbital Energies (a.u.)
    -----------------------

    Doubly Occupied:

       1A    -11.211380     2A    -11.210739     3A    -11.206064
       4A    -11.206057     5A     -1.074534     6A     -0.982303
       7A     -0.860895     8A     -0.787861     9A     -0.641288
      10A     -0.585812    11A     -0.577252    12A     -0.568071
      13A     -0.514563    14A     -0.494224    15A     -0.469825
      16A     -0.461420    17A     -0.456773

  @DF-RHF Final Energy:  -157.35640884500845

   => Energetics <=

    Nuclear Repulsion Energy =            131.5643754485545855
    One-Electron Energy =                -471.2234495405292023
    Two-Electron Energy =                 182.3026652469661713
    DFT Exchange-Correlation Energy =       0.0000000000000000
    Empirical Dispersion Energy =           0.0000000000000000
    PCM Polarization Energy =               0.0000000000000000
    EFP Energy =                            0.0000000000000000
    Total Energy =                       -157.3564088450084455
  Basis Set: (AUG-CC-PVTZ AUX)
    Blend: AUG-CC-PVTZ-RI
    Molecular point group: c1
  Basis Set: AUG-CC-PVTZ
    Blend: AUG-CC-PVTZ
  Basis Set: (AUG-CC-PVTZ AUX)
    Blend: AUG-CC-PVTZ-JKFIT
  Basis Set: (AUG-CC-PVTZ AUX)
    Blend: AUG-CC-PVTZ-JKFIT
	 Reference Energy          =    -157.3564088450084455 [Eh]
	 Singles Energy            =      -0.0000000000000000 [Eh]
	 Same-Spin Energy          =      -0.1654584117704403 [Eh]
	 Opposite-Spin Energy      =      -0.6391449633165492 [Eh]
	 Correlation Energy        =      -0.8046033750869895 [Eh]
	 Total Energy              =    -158.1610122200954436 [Eh]

	 ================> DF-SCS-MP2 Energies <==================
	-----------------------------------------------------------
	 SCS Same-Spin Scale       =       0.3333333333333333 [-]
	 SCS Opposite-Spin Scale   =       1.2000000000000000 [-]
	 SCS Same-Spin Energy      =      -0.0551528039234801 [Eh]
	 SCS Opposite-Spin Energy  =      -0.7669739559798591 [Eh]
	 SCS Correlation Energy    =      -0.8221267599033392 [Eh]
	 SCS Total Energy          =    -158.1785356049117865 [Eh]
	-----------------------------------------------------------

  -Total Gradient:
     Atom            X                  Y                   Z
    ------   -----------------  -----------------  -----------------
       1       -0.000018460852     0.000047650404     0.000010281074
       2       -0.000014124198    -0.000006231324    -0.000042006079
       3       -0.000046209627     0.000021288437     0.000065275796
       4        0.000136716660    -0.000111447942    -0.000051640534
       5        0.000011982968    -0.000011787091    -0.000027415841
       6       -0.000006745564    -0.000006545284     0.000018091933
       7       -0.000015450343     0.000028775452     0.000082409728
       8       -0.000007703739     0.000005725523     0.000024217343
       9        0.000003396157     0.000012318228    -0.000023582173
      10        0.000005846865    -0.000017637600    -0.000049504999
      11        0.000013605023    -0.000044117105    -0.000002806547
      12        0.000015037232     0.000014532310     0.000045229439
      13        0.000032346462     0.000024683066    -0.000025321047
      14       -0.000110237043     0.000042792924    -0.000023228093

  **** Optimization is complete! (in 5 steps) ****
    Final optimized geometry and variables:
    Molecular point group: c1

    Geometry (in Angstrom), charge = 0, multiplicity = 1:

    H           -2.200873965942     1.693250558742    -0.315657173202
    H           -1.907926913091     0.313694201393    -1.368626994749
    H           -2.349808612785     0.056605768529     0.313673536013
    C           -1.775352225758     0.693227689968    -0.356988246097
    H            0.247866743534     1.356361630159    -0.635201182625
    H           -0.191188530440     1.092716313264     1.036469402239
    C           -0.308269215729     0.692103111892     0.028267231040
    H           -0.248072414720    -1.356920021145     0.633987536128
    H            0.191903864051    -1.091956967775    -1.037232386044
    C            0.308369157160    -0.692095021423    -0.028651923817
    H            2.202253251538    -1.692448980279     0.311288300787
    H            1.906685276612    -0.318612967185     1.370973217506
    H            2.349078714452    -0.052073372385    -0.309466118189
    C            1.775259220413    -0.693287529171     0.357355458328

*** Psi4 exiting successfully. Buy a developer a beer!
