                               Psi4 1.1 release

  ==> Input File <==

--------------------------------------------------------------------------

memory 5000 mb

molecule butane {
  symmetry C1
  0 1
  H      1.662   2.275   -8.559
  H      2.056   1.366   -9.999
  H      1.674   0.529   -8.514
  C      2.142   1.395   -8.932
  H      4.169   2.051   -9.210
  H      3.731   1.788   -7.539
  C      3.631   1.416   -8.537
  H      3.665   -0.647   -7.940
  H      4.104   -0.384   -9.610
  C      4.203   -0.012   -8.612
  H      6.088   -0.983   -8.270
  H      5.791   0.381   -7.220
  H      6.230   0.644   -8.890
  C      5.691   0.009   -8.218
  units Angstrom
}

dih_string = "10 7 4 3 40"
set optking fixed_dihedral = $dih_string

optimize('MP2/aug-cc-pvtz')
--------------------------------------------------------------------------

    Molecular point group: c1
  Charge       = 0
  Multiplicity = 1
  Basis Set: AUG-CC-PVTZ
    Blend: AUG-CC-PVTZ
  Basis Set: (AUG-CC-PVTZ AUX)
    Blend: AUG-CC-PVTZ-JKFIT
  @DF-RHF Final Energy:  -157.35142928053057
    Total Energy =                       -157.3514292805305672
  Basis Set: (AUG-CC-PVTZ AUX)
    Blend: AUG-CC-PVTZ-RI
    Molecular point group: c1
  Basis Set: AUG-CC-PVTZ
    Blend: AUG-CC-PVTZ
  Basis Set: (AUG-CC-PVTZ AUX)
    Blend: AUG-CC-PVTZ-JKFIT
  Basis Set: (AUG-CC-PVTZ AUX)
    Blend: AUG-CC-PVTZ-JKFIT
	 Reference Energy          =    -157.3514292805305672 [Eh]
	 Singles Energy            =      -0.0000000000000000 [Eh]
	 Same-Spin Energy          =      -0.1653995090180450 [Eh]
	 Opposite-Spin Energy      =      -0.6388829703549100 [Eh]
	 Correlation Energy        =      -0.8042824793729551 [Eh]
	 Total Energy              =    -158.1557117599035109 [Eh]
	 SCS Total Energy          =    -158.1732220146291468 [Eh]
  @DF-RHF Final Energy:  -157.35411300872178
    Total Energy =                       -157.3541130087217823
  @DF-RHF Final Energy:  -157.35494114232040
    Total Energy =                       -157.3549411423203992
  @DF-RHF Final Energy:  -157.35522864421284
    Total Energy =                       -157.3552286442128434
  @DF-RHF Final Energy:  -157.35524472684298
    Total Energy =                       -157.3552447268429830
  Charge       = 0
  Multiplicity = 1
  Basis Set: AUG-CC-PVTZ
    Blend: AUG-CC-PVTZ
  Basis Set: (AUG-CC-PVTZ AUX)
    Blend: AUG-CC-PVTZ-JKFIT

    Orbital Energies (a.u.)
    -----------------------

    Doubly Occupied:

       1A    -11.211513     2A    -11.210823     3A    -11.206046
       4A    -11.205914     5A     -1.074199     6A     -0.981850
       7A     -0.861125     8A     -0.788305     9A     -0.640436
      10A     -0.586045    11A     -0.577894    12A     -0.567512
      13A     -0.514470    14A     -0.493947    15A     -0.470304
      16A     -0.460276    17A     -0.456744

  @DF-RHF Final Energy:  -157.35525079230348

   => Energetics <=

    Nuclear Repulsion Energy =            131.5171632742533347
    One-Electron Energy =                -471.1300195585449160
    Two-Electron Energy =                 182.2576054919881017
    DFT Exchange-Correlation Energy =       0.0000000000000000
    Empirical Dispersion Energy =           0.0000000000000000
    PCM Polarization Energy =               0.0000000000000000
    EFP Energy =                            0.0000000000000000
    Total Energy =                       -157.3552507923034796
  Basis Set: (AUG-CC-PVTZ AUX)
    Blend: AUG-CC-PVTZ-RI
    Molecular point group: c1
  Basis Set: AUG-CC-PVTZ
    Blend: AUG-CC-PVTZ
  Basis Set: (AUG-CC-PVTZ AUX)
    Blend: AUG-CC-PVTZ-JKFIT
  Basis Set: (AUG-CC-PVTZ AUX)
    Blend: AUG-CC-PVTZ-JKFIT
	 Reference Energy          =    -157.3552507923034796 [Eh]
	 Singles Energy            =      -0.0000000000000000 [Eh]
	 Same-Spin Energy          =      -0.1654703078552737 [Eh]
	 Opposite-Spin Energy      =      -0.6393387846886621 [Eh]
	 Correlation Energy        =      -0.8048090925439357 [Eh]
	 Total Energy              =    -158.1600598848474135 [Eh]

	 ================> DF-SCS-MP2 Energies <==================
	-----------------------------------------------------------
	 SCS Same-Spin Scale       =       0.3333333333333333 [-]
	 SCS Opposite-Spin Scale   =       1.2000000000000000 [-]
	 SCS Same-Spin Energy      =      -0.0551567692850912 [Eh]
	 SCS Opposite-Spin Energy  =      -0.7672065416263946 [Eh]
	 SCS Correlation Energy    =      -0.8223633109114858 [Eh]
	 SCS Total Energy          =    -158.1776141032149781 [Eh]
	-----------------------------------------------------------

  -Total Gradient:
     Atom            X                  Y                   Z
    ------   -----------------  -----------------  -----------------
       1       -0.000013040382     0.000003978369     0.000010903148
       2        0.000011091178     0.000005166586     0.000027264943
       3        0.000616032823    -0.001401079423    -0.002251465575
       4       -0.000962197797     0.001631194467     0.003528006763
       5        0.000016738464     0.000001924086    -0.000005247491
       6       -0.000007264262     0.000012901791    -0.000025008842
       7        0.000852215851     0.000074679149    -0.003163715477
       8        0.000016864316     0.000000020800    -0.000016724787
       9       -0.000012702375    -0.000003526351    -0.000002331548
      10       -0.000507000836    -0.000313845906     0.001872492224
      11        0.000007630420     0.000003575649     0.000004880186
      12        0.000009834316     0.000001725346    -0.000004605167
      13       -0.000010611213     0.000000336746    -0.000003014211
      14       -0.000017590503    -0.000017051308     0.000028565834

  **** Optimization is complete! (in 6 steps) ****
    Final optimized geometry and variables:
    Molecular point group: c1

    Geometry (in Angstrom), charge = 0, multiplicity = 1:

    H           -2.290784594979     1.592805991937    -0.030869415642
    H           -1.869743981927     0.642211669762    -1.448614501640
    H           -2.288646878140    -0.174283025588     0.037122932866
    C           -1.774799715064     0.696916018164    -0.365599739346
    H            0.257729140568     1.372117489101    -0.591887644459
    H           -0.211094855720     1.065415312174     1.062399436233
    C           -0.310551768407     0.690788539030     0.042344177663
    H           -0.241073639306    -1.351188112088     0.657123781026
    H            0.173990352013    -1.102054658686    -1.022892234343
    C            0.306284962449    -0.693463579202    -0.019381425141
    H            2.201840620918    -1.694168160823     0.309562338252
    H            1.926053918958    -0.301101294595     1.349279841221
    H            2.344696806349    -0.065345047873    -0.341670904692
    C            1.778817345627    -0.692931659021     0.344354183881

*** Psi4 exiting successfully. Buy a developer a beer!
