                               Psi4 1.1 release

  ==> Input File <==

--------------------------------------------------------------------------

memory 5 Gb

molecule phepyrOH_neutral {
  symmetry C1
  0 1
  C      1.885   -1.036   -0.112
  C      2.878   -1.652   2.002
  C      0.807   -0.463   0.561
  C      1.800   -1.079   2.676
  C      5.207   -2.536   0.598
  C      3.951   -2.490   -1.452
  C      6.249   -3.105   -0.116
  C      5.050   -3.061   -2.075
  C      2.921   -1.631   0.608
  C      4.040   -2.225   -0.090
  C      0.764   -0.484   1.955
  N      6.200   -3.376   -1.439
  O      -0.288   0.076   2.612
  H      1.904   -1.012   -1.199
  H      3.678   -2.112   2.578
  H      0.003   -0.001   -0.006
  H      1.772   -1.098   3.762
  H      5.313   -2.346   1.661
  H      3.057   -2.260   -2.022
  H      7.180   -3.368   0.375
  H      5.031   -3.286   -3.136
  H      -0.175   -0.018   3.571
  units Angstrom
}

dih_string = "1 9 10 5 165"
set optking fixed_dihedral = $dih_string

optimize('MP2/aug-cc-PVTZ')
--------------------------------------------------------------------------

    Molecular point group: c1
  Charge       = 0
  Multiplicity = 1
  Basis Set: AUG-CC-PVTZ
    Blend: AUG-CC-PVTZ
  Basis Set: (AUG-CC-PVTZ AUX)
    Blend: AUG-CC-PVTZ-JKFIT
  @DF-RHF Final Energy:  -551.28174261100435
    Total Energy =                       -551.2817426110043471
  Basis Set: (AUG-CC-PVTZ AUX)
    Blend: AUG-CC-PVTZ-RI
    Molecular point group: c1
  Basis Set: AUG-CC-PVTZ
    Blend: AUG-CC-PVTZ
  Basis Set: (AUG-CC-PVTZ AUX)
    Blend: AUG-CC-PVTZ-JKFIT
  Basis Set: (AUG-CC-PVTZ AUX)
    Blend: AUG-CC-PVTZ-JKFIT
	 Reference Energy          =    -551.2817426110043471 [Eh]
	 Singles Energy            =      -0.0000000000000002 [Eh]
	 Same-Spin Energy          =      -0.6056639329324226 [Eh]
	 Opposite-Spin Energy      =      -1.8321080713488476 [Eh]
	 Correlation Energy        =      -2.4377720042812703 [Eh]
	 Total Energy              =    -553.7195146152855614 [Eh]
	 SCS Total Energy          =    -553.6821602742670621 [Eh]
  @DF-RHF Final Energy:  -551.28898551727309
    Total Energy =                       -551.2889855172730904
  @DF-RHF Final Energy:  -551.29121119630429
    Total Energy =                       -551.2912111963042889
  @DF-RHF Final Energy:  -551.29128014262358
    Total Energy =                       -551.2912801426235774
  @DF-RHF Final Energy:  -551.29130151265804
    Total Energy =                       -551.2913015126580376
  Charge       = 0
  Multiplicity = 1
  Basis Set: AUG-CC-PVTZ
    Blend: AUG-CC-PVTZ
  Basis Set: (AUG-CC-PVTZ AUX)
    Blend: AUG-CC-PVTZ-JKFIT

    Orbital Energies (a.u.)
    -----------------------

    Doubly Occupied:

       1A    -20.603878     2A    -15.558419     3A    -11.315123
       4A    -11.270443     5A    -11.270342     6A    -11.267022
       7A    -11.254371     8A    -11.252058     9A    -11.248070
      10A    -11.244496    11A    -11.238034    12A    -11.234445
      13A    -11.234274    14A     -1.421179    15A     -1.256768
      16A     -1.176099    17A     -1.105492    18A     -1.040575
      19A     -1.029384    20A     -1.013983    21A     -0.883778
      22A     -0.874794    23A     -0.841243    24A     -0.814163
      25A     -0.752269    26A     -0.726805    27A     -0.687031
      28A     -0.665597    29A     -0.651895    30A     -0.635058
      31A     -0.612820    32A     -0.609293    33A     -0.605398
      34A     -0.589830    35A     -0.580353    36A     -0.548218
      37A     -0.536090    38A     -0.525820    39A     -0.502682
      40A     -0.494103    41A     -0.416340    42A     -0.401499
      43A     -0.358180    44A     -0.346472    45A     -0.306300

  @DF-RHF Final Energy:  -551.29130469667427

   => Energetics <=

    Nuclear Repulsion Energy =            697.4906642244477553
    One-Electron Energy =               -2131.5629678674013121
    Two-Electron Energy =                 882.7809989462792828
    DFT Exchange-Correlation Energy =       0.0000000000000000
    Empirical Dispersion Energy =           0.0000000000000000
    PCM Polarization Energy =               0.0000000000000000
    EFP Energy =                            0.0000000000000000
    Total Energy =                       -551.2913046966742741
  Basis Set: (AUG-CC-PVTZ AUX)
    Blend: AUG-CC-PVTZ-RI
    Molecular point group: c1
  Basis Set: AUG-CC-PVTZ
    Blend: AUG-CC-PVTZ
  Basis Set: (AUG-CC-PVTZ AUX)
    Blend: AUG-CC-PVTZ-JKFIT
  Basis Set: (AUG-CC-PVTZ AUX)
    Blend: AUG-CC-PVTZ-JKFIT
	 Reference Energy          =    -551.2913046966742741 [Eh]
	 Singles Energy            =      -0.0000000000000003 [Eh]
	 Same-Spin Energy          =      -0.6042792817342307 [Eh]
	 Opposite-Spin Energy      =      -1.8289999305783968 [Eh]
	 Correlation Energy        =      -2.4332792123126281 [Eh]
	 Total Energy              =    -553.7245839089869150 [Eh]

	 ================> DF-SCS-MP2 Energies <==================
	-----------------------------------------------------------
	 SCS Same-Spin Scale       =       0.3333333333333333 [-]
	 SCS Opposite-Spin Scale   =       1.2000000000000000 [-]
	 SCS Same-Spin Energy      =      -0.2014264272447436 [Eh]
	 SCS Opposite-Spin Energy  =      -2.1947999166940759 [Eh]
	 SCS Correlation Energy    =      -2.3962263439388201 [Eh]
	 SCS Total Energy          =    -553.6875310406130666 [Eh]
	-----------------------------------------------------------

  -Total Gradient:
     Atom            X                  Y                   Z
    ------   -----------------  -----------------  -----------------
       1       -0.001096748379    -0.002040860128    -0.000040845202
       2       -0.000005851930    -0.000012707621    -0.000010806847
       3       -0.000013369472     0.000031173561     0.000027321826
       4        0.000017720511    -0.000008754092    -0.000010235468
       5       -0.000844970464    -0.002129587347     0.000477172113
       6       -0.000000820362     0.000022724767     0.000004693194
       7        0.000036955641     0.000084199587    -0.000034087655
       8       -0.000025859330    -0.000082166412     0.000021399321
       9        0.001271736694     0.001925574354     0.000311254375
      10        0.000667499799     0.002210550651    -0.000719374203
      11       -0.000029407399     0.000008774978    -0.000004989449
      12        0.000003658296     0.000000725636     0.000005626341
      13        0.000013330982    -0.000006614271    -0.000006048064
      14       -0.000009793613     0.000010262129     0.000011207203
      15       -0.000001361825     0.000007284649    -0.000001082571
      16        0.000009641299    -0.000010616100    -0.000004600892
      17        0.000002407182     0.000002851598    -0.000012580013
      18        0.000003739770    -0.000007574263    -0.000009344400
      19        0.000013596869    -0.000002511528    -0.000004515122
      20       -0.000020451276    -0.000033209062     0.000016034990
      21        0.000002468451     0.000032801809    -0.000000733819
      22        0.000005878539    -0.000002322899    -0.000015465659

  **** Optimization is complete! (in 6 steps) ****
    Final optimized geometry and variables:
    Molecular point group: c1

    Geometry (in Angstrom), charge = 0, multiplicity = 1:

    C           -1.261310857523     0.759468079712    -0.545078043211
    C           -0.289425369210     0.108457357467     1.532972617588
    C           -2.342943877938     1.305099409425     0.121377045264
    C           -1.368463440677     0.651398917313     2.210480441867
    C            2.116114010737    -0.771539350858     0.069111012251
    C            0.851988926637    -0.770621855724    -1.926071891310
    C            3.146892900558    -1.365049994426    -0.640566750074
    C            1.934528367088    -1.362973947775    -2.555410990320
    C           -0.206433072732     0.155253905245     0.141952148367
    C            0.921887493513    -0.447603506762    -0.572144945122
    C           -2.400904813875     1.255400284089     1.506729173629
    N            3.079272148620    -1.665493223027    -1.939351335409
    O           -3.488672669211     1.808456007070     2.109378331542
    H           -1.231831267291     0.836077657289    -1.620535922553
    H            0.481685352645    -0.382147099868     2.105550768725
    H           -3.147114503558     1.779453952068    -0.419190739616
    H           -1.409878860278     0.595902760651     3.289540167177
    H            2.268041551328    -0.542048841750     1.111953171316
    H           -0.045205731310    -0.588816449773    -2.496062767809
    H            4.073968881276    -1.609102572275    -0.140543175280
    H            1.876078605292    -1.612093676670    -3.605885688258
    H           -3.402957810339     1.709764920208     3.062457285254

*** Psi4 exiting successfully. Buy a developer a beer!
