                               Psi4 1.1 release

  ==> Input File <==

--------------------------------------------------------------------------

memory 5 Gb

molecule phepyrOH_zwitterion {
  symmetry C1
  0 1
  C      1.885   -1.036   -0.112
  C      2.878   -1.652   2.002
  C      0.807   -0.463   0.561
  C      1.800   -1.079   2.676
  C      5.073   -2.819   0.628
  C      4.084   -2.206   -1.481
  C      6.134   -3.381   -0.068
  C      5.170   -2.783   -2.123
  C      2.921   -1.631   0.608
  C      4.040   -2.226   -0.090
  C      0.764   -0.484   1.955
  N      6.152   -3.348   -1.407
  O      -0.227   0.042   2.574
  H      1.904   -1.011   -1.199
  H      3.678   -2.112   2.577
  H      0.011   -0.006   -0.025
  H      1.791   -1.108   3.764
  H      5.065   -2.850   1.714
  H      3.292   -1.749   -2.067
  H      6.978   -3.863   0.406
  H      5.288   -2.814   -3.198
  H      6.941   -3.766   -1.899
  units Angstrom
}

dih_string = "1 9 10 5 180.001"
set optking fixed_dihedral = $dih_string

optimize('MP2/aug-cc-PVTZ')
--------------------------------------------------------------------------

    Molecular point group: c1
  Charge       = 0
  Multiplicity = 1
  Basis Set: AUG-CC-PVTZ
    Blend: AUG-CC-PVTZ
  Basis Set: (AUG-CC-PVTZ AUX)
    Blend: AUG-CC-PVTZ-JKFIT
  @DF-RHF Final Energy:  -551.21575391666011
    Total Energy =                       -551.2157539166601055
  Basis Set: (AUG-CC-PVTZ AUX)
    Blend: AUG-CC-PVTZ-RI
    Molecular point group: c1
  Basis Set: AUG-CC-PVTZ
    Blend: AUG-CC-PVTZ
  Basis Set: (AUG-CC-PVTZ AUX)
    Blend: AUG-CC-PVTZ-JKFIT
  Basis Set: (AUG-CC-PVTZ AUX)
    Blend: AUG-CC-PVTZ-JKFIT
	 Reference Energy          =    -551.2157539166601055 [Eh]
	 Singles Energy            =      -0.0000000000000001 [Eh]
	 Same-Spin Energy          =      -0.6065644828526389 [Eh]
	 Opposite-Spin Energy      =      -1.8422203271156790 [Eh]
	 Correlation Energy        =      -2.4487848099683180 [Eh]
	 Total Energy              =    -553.6645387266283933 [Eh]
	 SCS Total Energy          =    -553.6286064701497480 [Eh]
  @DF-RHF Final Energy:  -551.21650140050826
    Total Energy =                       -551.2165014005082639
  @DF-RHF Final Energy:  -551.21747836961060
    Total Energy =                       -551.2174783696106033
  @DF-RHF Final Energy:  -551.21815965466976
    Total Energy =                       -551.2181596546697619
  @DF-RHF Final Energy:  -551.21872323327784
    Total Energy =                       -551.2187232332778422
  @DF-RHF Final Energy:  -551.21914240016520
    Total Energy =                       -551.2191424001651967
    Molecular point group: c1
  Charge       = 0
  Multiplicity = 1
  Basis Set: AUG-CC-PVTZ
    Blend: AUG-CC-PVTZ
  Basis Set: (AUG-CC-PVTZ AUX)
    Blend: AUG-CC-PVTZ-JKFIT

    Orbital Energies (a.u.)
    -----------------------

    Doubly Occupied:

       1A    -20.443220     2A    -15.687225     3A    -11.349388
       4A    -11.349126     5A    -11.303056     6A    -11.279037
       7A    -11.278792     8A    -11.254060     9A    -11.233510
      10A    -11.232659    11A    -11.219186    12A    -11.194405
      13A    -11.194335    14A     -1.373327    15A     -1.267364
      16A     -1.176047    17A     -1.108701    18A     -1.103204
      19A     -1.001291    20A     -0.991765    21A     -0.931181
      22A     -0.900423    23A     -0.829230    24A     -0.816438
      25A     -0.787344    26A     -0.725820    27A     -0.716527
      28A     -0.696651    29A     -0.666740    30A     -0.646031
      31A     -0.618198    32A     -0.613615    33A     -0.606675
      34A     -0.586145    35A     -0.558829    36A     -0.538624
      37A     -0.522037    38A     -0.486789    39A     -0.485366
      40A     -0.469805    41A     -0.415023    42A     -0.390635
      43A     -0.352134    44A     -0.329070    45A     -0.237254

  @DF-RHF Final Energy:  -551.21939360255055

   => Energetics <=

    Nuclear Repulsion Energy =            701.2561928997203040
    One-Electron Energy =               -2139.0186141808276261
    Two-Electron Energy =                 886.5430276785568822
    DFT Exchange-Correlation Energy =       0.0000000000000000
    Empirical Dispersion Energy =           0.0000000000000000
    PCM Polarization Energy =               0.0000000000000000
    EFP Energy =                            0.0000000000000000
    Total Energy =                       -551.2193936025505536
  Basis Set: (AUG-CC-PVTZ AUX)
    Blend: AUG-CC-PVTZ-RI
    Molecular point group: c1

    Geometry (in Angstrom), charge = 0, multiplicity = 1:

       Center              X                  Y                   Z               Mass
    ------------   -----------------  -----------------  -----------------  -----------------
           C         -1.254190724323     0.801370523821    -0.548308363509    12.000000000000
           C         -0.409866955552    -0.048109466458     1.550932709860    12.000000000000
           C         -2.283371203452     1.451021225193     0.124469536572    12.000000000000
           C         -1.437972878479     0.600276274725     2.227429804813    12.000000000000
           C          1.928580794879    -0.968937470802     0.176514263909    12.000000000000
           C          0.816246543861    -0.617036782694    -1.932180828723    12.000000000000
           C          3.026524993887    -1.451356187274    -0.514897304023    12.000000000000
           C          1.941159220705    -1.107483826946    -2.571821091709    12.000000000000
           C         -0.332630675515     0.012266438169     0.154862787535    12.000000000000
           C          0.787684117623    -0.582269336197    -0.535510826237    12.000000000000
           C         -2.386564096785     1.347406789744     1.516423234870    12.000000000000
           N          3.002075666826    -1.514879805137    -1.855043309003    14.003074004780
           O         -3.328819002525     1.947004581156     2.136428929543    15.994914619560
           H         -1.183102437685     0.910904254521    -1.627409917487     1.007825032070
           H          0.325630977729    -0.607847654983     2.123324689791     1.007825032070
           H         -2.993707028374     2.041711503486    -0.453275182024     1.007825032070
           H         -1.479329563163     0.520105430527     3.311229283070     1.007825032070
           H          1.968307537211    -0.905808668520     1.259678204547     1.007825032070
           H         -0.027158108056    -0.272764532025    -2.522810778507     1.007825032070
           H          3.939752467873    -1.786069541262    -0.038851563443     1.007825032070
           H          2.036603719909    -1.182692132899    -3.646569420867     1.007825032070
           H          3.821553672251    -1.867863461443    -2.345142700499     1.007825032070

  Basis Set: AUG-CC-PVTZ
    Blend: AUG-CC-PVTZ
  Basis Set: (AUG-CC-PVTZ AUX)
    Blend: AUG-CC-PVTZ-JKFIT
  Basis Set: (AUG-CC-PVTZ AUX)
    Blend: AUG-CC-PVTZ-JKFIT
	 Reference Energy          =    -551.2193936025505536 [Eh]
	 Singles Energy            =      -0.0000000000000001 [Eh]
	 Same-Spin Energy          =      -0.6057788628265508 [Eh]
	 Opposite-Spin Energy      =      -1.8408258848370793 [Eh]
	 Correlation Energy        =      -2.4466047476636303 [Eh]
	 Total Energy              =    -553.6659983502141813 [Eh]

	 ================> DF-SCS-MP2 Energies <==================
	-----------------------------------------------------------
	 SCS Same-Spin Scale       =       0.3333333333333333 [-]
	 SCS Opposite-Spin Scale   =       1.2000000000000000 [-]
	 SCS Same-Spin Energy      =      -0.2019262876088503 [Eh]
	 SCS Opposite-Spin Energy  =      -2.2089910618044950 [Eh]
	 SCS Correlation Energy    =      -2.4109173494133453 [Eh]
	 SCS Total Energy          =    -553.6303109519639065 [Eh]
	-----------------------------------------------------------

  -Total Gradient:
     Atom            X                  Y                   Z
    ------   -----------------  -----------------  -----------------
       1        0.032828519898    -0.011447902677    -0.003321784147
       2        0.019882039769    -0.010201634040    -0.027360561624
       3       -0.027307059458     0.012808474914     0.049777470412
       4       -0.047264465482     0.032679418764     0.000246336759
       5       -0.032187381816     0.022288503718     0.007499946169
       6       -0.024526587947     0.013139196645     0.028393378621
       7        0.012393376549    -0.005829203600    -0.030277263553
       8        0.028896034127    -0.012414589822     0.004008675967
       9       -0.040791194322     0.014427096255     0.022616323785
      10        0.045188147525    -0.035323240079    -0.030402535406
      11        0.057991438573    -0.036460269152    -0.038970035773
      12       -0.020327228975     0.009643686433     0.013882552251
      13       -0.018154951783     0.012184481340     0.011964459965
      14        0.001240302431    -0.000474919454    -0.006304244233
      15        0.006227053837    -0.001765508419     0.002090953014
      16       -0.003114301018     0.001831219799    -0.009135313861
      17        0.004582357134    -0.003741623539     0.006439458197
      18       -0.002256721779     0.000516168945     0.008446902738
      19       -0.006953643990     0.004795982669    -0.002247569070
      20        0.003516092007    -0.002295935436     0.000161973419
      21        0.001659503971    -0.000795671824    -0.002691026963
      22        0.008478670739    -0.003563731441    -0.004818096671

*** Psi4 exiting successfully. Buy a developer a beer!
