                               Psi4 1.1 release

  ==> Input File <==

--------------------------------------------------------------------------

memory 1000 mb

molecule butane {
  symmetry C1
  0 1
  H      1.604   0.760   -8.260
  H      1.745   2.388   -8.880
  H      2.043   1.024   -9.930
  C      2.142   1.395   -8.932
  H      4.169   2.051   -9.210
  H      3.731   1.788   -7.539
  C      3.631   1.416   -8.537
  H      3.665   -0.647   -7.940
  H      4.104   -0.384   -9.610
  C      4.203   -0.012   -8.612
  H      6.256   0.498   -8.984
  H      6.043   -0.994   -8.100
  H      5.809   0.538   -7.295
  C      5.691   0.009   -8.218
  units Angstrom
}

dih_string = "7 10 14 13 50"
set optking fixed_dihedral = $dih_string

optimize('MP2/aug-cc-pvtz')
--------------------------------------------------------------------------

    Molecular point group: c1
  Charge       = 0
  Multiplicity = 1
  Basis Set: AUG-CC-PVTZ
    Blend: AUG-CC-PVTZ
  Basis Set: (AUG-CC-PVTZ AUX)
    Blend: AUG-CC-PVTZ-JKFIT
  @DF-RHF Final Energy:  -157.35244073501300
    Total Energy =                       -157.3524407350130048
  Basis Set: (AUG-CC-PVTZ AUX)
    Blend: AUG-CC-PVTZ-RI
    Molecular point group: c1
  Basis Set: AUG-CC-PVTZ
    Blend: AUG-CC-PVTZ
  Basis Set: (AUG-CC-PVTZ AUX)
    Blend: AUG-CC-PVTZ-JKFIT
  Basis Set: (AUG-CC-PVTZ AUX)
    Blend: AUG-CC-PVTZ-JKFIT
	 Reference Energy          =    -157.3524407350130048 [Eh]
	 Singles Energy            =      -0.0000000000000001 [Eh]
	 Same-Spin Energy          =      -0.1653750400092248 [Eh]
	 Opposite-Spin Energy      =      -0.6387079674990069 [Eh]
	 Correlation Energy        =      -0.8040830075082319 [Eh]
	 Total Energy              =    -158.1565237425212445 [Eh]
	 SCS Total Energy          =    -158.1740153093482206 [Eh]
  @DF-RHF Final Energy:  -157.35508288558981
    Total Energy =                       -157.3550828855898089
  @DF-RHF Final Energy:  -157.35587595018524
    Total Energy =                       -157.3558759501852364
  @DF-RHF Final Energy:  -157.35611196553711
    Total Energy =                       -157.3561119655371101
  Charge       = 0
  Multiplicity = 1
  Basis Set: AUG-CC-PVTZ
    Blend: AUG-CC-PVTZ
  Basis Set: (AUG-CC-PVTZ AUX)
    Blend: AUG-CC-PVTZ-JKFIT

    Orbital Energies (a.u.)
    -----------------------

    Doubly Occupied:

       1A    -11.211425     2A    -11.210776     3A    -11.206074
       4A    -11.206027     5A     -1.074498     6A     -0.982179
       7A     -0.860924     8A     -0.788029     9A     -0.641024
      10A     -0.586051    11A     -0.577570    12A     -0.567656
      13A     -0.514687    14A     -0.493883    15A     -0.470000
      16A     -0.461083    17A     -0.456911

  @DF-RHF Final Energy:  -157.35610421159080

   => Energetics <=

    Nuclear Repulsion Energy =            131.5598713563345257
    One-Electron Energy =                -471.2143590192820284
    Two-Electron Energy =                 182.2983834513567274
    DFT Exchange-Correlation Energy =       0.0000000000000000
    Empirical Dispersion Energy =           0.0000000000000000
    PCM Polarization Energy =               0.0000000000000000
    EFP Energy =                            0.0000000000000000
    Total Energy =                       -157.3561042115908037
  Basis Set: (AUG-CC-PVTZ AUX)
    Blend: AUG-CC-PVTZ-RI
    Molecular point group: c1
  Basis Set: AUG-CC-PVTZ
    Blend: AUG-CC-PVTZ
  Basis Set: (AUG-CC-PVTZ AUX)
    Blend: AUG-CC-PVTZ-JKFIT
  Basis Set: (AUG-CC-PVTZ AUX)
    Blend: AUG-CC-PVTZ-JKFIT
	 Reference Energy          =    -157.3561042115908037 [Eh]
	 Singles Energy            =      -0.0000000000000000 [Eh]
	 Same-Spin Energy          =      -0.1654666007975708 [Eh]
	 Opposite-Spin Energy      =      -0.6392005759003525 [Eh]
	 Correlation Energy        =      -0.8046671766979232 [Eh]
	 Total Energy              =    -158.1607713882887367 [Eh]

	 ================> DF-SCS-MP2 Energies <==================
	-----------------------------------------------------------
	 SCS Same-Spin Scale       =       0.3333333333333333 [-]
	 SCS Opposite-Spin Scale   =       1.2000000000000000 [-]
	 SCS Same-Spin Energy      =      -0.0551555335991902 [Eh]
	 SCS Opposite-Spin Energy  =      -0.7670406910804229 [Eh]
	 SCS Correlation Energy    =      -0.8221962246796132 [Eh]
	 SCS Total Energy          =    -158.1783004362704048 [Eh]
	-----------------------------------------------------------

  -Total Gradient:
     Atom            X                  Y                   Z
    ------   -----------------  -----------------  -----------------
       1       -0.000038255537    -0.000027065437     0.000025210913
       2       -0.000011523312     0.000043154566    -0.000002163144
       3       -0.000020441804    -0.000019384894    -0.000052258499
       4        0.000136367621    -0.000042049113     0.000036954888
       5        0.000015474542     0.000005613268    -0.000031940394
       6       -0.000004127385    -0.000009317072     0.000006587946
       7       -0.000273597135    -0.000145301140     0.001045166183
       8        0.000011386347    -0.000006223103    -0.000002867897
       9        0.000003344986     0.000024198676    -0.000055087161
      10        0.000382619447     0.000516407118    -0.001527647258
      11        0.000021085884    -0.000011271423    -0.000012517864
      12        0.000016677448    -0.000075812128     0.000019957794
      13        0.000208153648     0.001268139784    -0.000698064793
      14       -0.000447164746    -0.001521089103     0.001248669286

  **** Optimization is complete! (in 5 steps) ****
    Final optimized geometry and variables:
    Molecular point group: c1

    Geometry (in Angstrom), charge = 0, multiplicity = 1:

    H           -2.351976163113     0.053495744753     0.292378485117
    H           -2.196737113902     1.699294535261    -0.311828318283
    H           -1.895317853514     0.334760546739    -1.381810061855
    C           -1.771391435609     0.699713398510    -0.363747040249
    H            0.256233666641     1.358728487238    -0.619663903332
    H           -0.198642253825     1.085400905534     1.046324657765
    C           -0.307906918320     0.691830241736     0.034674971658
    H           -0.248647127602    -1.347784655160     0.656416286478
    H            0.173106283650    -1.106806337073    -1.022663062225
    C            0.303870089032    -0.694595011739    -0.021032004472
    H            2.363657928896    -0.189915011462    -0.411317044863
    H            2.165157829388    -1.707347420497     0.456825141983
    H            1.935578590289    -0.167187395104     1.287712526463
    C            1.775225541991    -0.698010153835     0.350744486472

*** Psi4 exiting successfully. Buy a developer a beer!
