                               Psi4 1.1 release

  ==> Input File <==

--------------------------------------------------------------------------

memory 5 Gb

molecule phepyrFOH_neutral {
  symmetry C1
  0 1
  C      1.885   -1.036   -0.112
  C      0.807   -0.463   0.561
  C      3.825   -3.269   -0.988
  C      5.328   -1.753   0.119
  C      1.800   -1.079   2.676
  C      4.927   -3.802   -1.637
  C      6.363   -2.354   -0.579
  C      2.921   -1.631   0.608
  C      4.038   -2.225   -0.095
  C      0.764   -0.484   1.955
  C      2.878   -1.652   2.002
  N      6.195   -3.370   -1.455
  O      -0.289   0.076   2.612
  F      3.866   -2.220   2.709
  H      1.904   -1.012   -1.199
  H      0.002   -0.002   -0.006
  H      2.833   -3.663   -1.183
  H      5.532   -0.940   0.809
  H      1.772   -1.099   3.762
  H      4.814   -4.616   -2.345
  H      7.387   -2.023   -0.446
  H      -1.124   -0.185   2.193
  units Angstrom
}

dih_string = "2 10 13 22 45"
set optking fixed_dihedral = $dih_string

optimize('MP2/aug-cc-PVTZ')
--------------------------------------------------------------------------

    Molecular point group: c1
  Charge       = 0
  Multiplicity = 1
  Basis Set: AUG-CC-PVTZ
    Blend: AUG-CC-PVTZ
  Basis Set: (AUG-CC-PVTZ AUX)
    Blend: AUG-CC-PVTZ-JKFIT
  @DF-RHF Final Energy:  -650.17150637344582
    Total Energy =                       -650.1715063734457090
  Basis Set: (AUG-CC-PVTZ AUX)
    Blend: AUG-CC-PVTZ-RI
    Molecular point group: c1
  Basis Set: AUG-CC-PVTZ
    Blend: AUG-CC-PVTZ
  Basis Set: (AUG-CC-PVTZ AUX)
    Blend: AUG-CC-PVTZ-JKFIT
  Basis Set: (AUG-CC-PVTZ AUX)
    Blend: AUG-CC-PVTZ-JKFIT
	 Reference Energy          =    -650.1715063734458226 [Eh]
	 Singles Energy            =      -0.0000000000000025 [Eh]
	 Same-Spin Energy          =      -0.6773012245345282 [Eh]
	 Opposite-Spin Energy      =      -2.0189690557005759 [Eh]
	 Correlation Energy        =      -2.6962702802351068 [Eh]
	 Total Energy              =    -652.8677766536809486 [Eh]
	 SCS Total Energy          =    -652.8200363151313468 [Eh]
    Molecular point group: c1
  Charge       = 0
  Multiplicity = 1
  Basis Set: AUG-CC-PVTZ
    Blend: AUG-CC-PVTZ
  Basis Set: (AUG-CC-PVTZ AUX)
    Blend: AUG-CC-PVTZ-JKFIT

    Orbital Energies (a.u.)
    -----------------------

    Doubly Occupied:

       1A    -26.322988     2A    -20.602081     3A    -15.564532
       4A    -11.344364     5A    -11.321611     6A    -11.273998
       7A    -11.273006     8A    -11.267499     9A    -11.263688
      10A    -11.255512    11A    -11.247625    12A    -11.247229
      13A    -11.239999    14A    -11.238265    15A     -1.643327
      16A     -1.419697    17A     -1.257017    18A     -1.184181
      19A     -1.111832    20A     -1.042744    21A     -1.035347
      22A     -1.022128    23A     -0.889855    24A     -0.876612
      25A     -0.855405    26A     -0.829272    27A     -0.778555
      28A     -0.735200    29A     -0.723453    30A     -0.709786
      31A     -0.696669    32A     -0.666216    33A     -0.664043
      34A     -0.653723    35A     -0.632732    36A     -0.622759
      37A     -0.605986    38A     -0.598674    39A     -0.566300
      40A     -0.546604    41A     -0.539363    42A     -0.523532
      43A     -0.520953    44A     -0.496997    45A     -0.419863
      46A     -0.391183    47A     -0.359512    48A     -0.349093
      49A     -0.331433

  @DF-RHF Final Energy:  -650.17765712616699

   => Energetics <=

    Nuclear Repulsion Energy =            814.3646930226623226
    One-Electron Energy =               -2503.5598148446233608
    Two-Electron Energy =                1039.0174646957939331
    DFT Exchange-Correlation Energy =       0.0000000000000000
    Empirical Dispersion Energy =           0.0000000000000000
    PCM Polarization Energy =               0.0000000000000000
    EFP Energy =                            0.0000000000000000
    Total Energy =                       -650.1776571261671052
  Basis Set: (AUG-CC-PVTZ AUX)
    Blend: AUG-CC-PVTZ-RI
    Molecular point group: c1

    Geometry (in Angstrom), charge = 0, multiplicity = 1:

       Center              X                  Y                   Z               Mass
    ------------   -----------------  -----------------  -----------------  -----------------
           C         -1.332816400301     0.756608921026    -0.782437147469    12.000000000000
           C         -2.406536030475     1.328673932183    -0.112165506572    12.000000000000
           C          0.650264338715    -1.480328304519    -1.677414169466    12.000000000000
           C          2.137241720560     0.019816263789    -0.568024079868    12.000000000000
           C         -1.414539341753     0.721362262953     1.992104392430    12.000000000000
           C          1.754936322884    -2.015560958935    -2.321252599065    12.000000000000
           C          3.176065482526    -0.581932050279    -1.260054947255    12.000000000000
           C         -0.289483060916     0.164106480899    -0.077717205544    12.000000000000
           C          0.843172369854    -0.437832052528    -0.780135504308    12.000000000000
           C         -2.447315339220     1.308297215559     1.278135734962    12.000000000000
           C         -0.349505962459     0.158978216680     1.309571728546    12.000000000000
           N          3.011846696877    -1.588652869381    -2.131267206262    14.003074004780
           O         -3.485112325879     1.867905183467     1.966005369267    15.994914619560
           F          0.640371503056    -0.405357436957     2.012274906027    18.998403224000
           H         -1.309550975293     0.776450911560    -1.863521701440     1.007825032070
           H         -3.210232848291     1.789763732957    -0.671042906503     1.007825032070
           H         -0.337743611051    -1.870804962847    -1.876289917355     1.007825032070
           H          2.337125509078     0.828254921477     0.120744270025     1.007825032070
           H         -1.437580642643     0.701839472870     3.072765704194     1.007825032070
           H          1.643095923585    -2.827500323619    -3.027916979049     1.007825032070
           H          4.196959868433    -0.252051963250    -1.119914521869     1.007825032070
           H         -4.317896147938     1.612021729846     1.555850120883     1.007825032070

  Basis Set: AUG-CC-PVTZ
    Blend: AUG-CC-PVTZ
  Basis Set: (AUG-CC-PVTZ AUX)
    Blend: AUG-CC-PVTZ-JKFIT
  Basis Set: (AUG-CC-PVTZ AUX)
    Blend: AUG-CC-PVTZ-JKFIT
	 Reference Energy          =    -650.1776571261669915 [Eh]
	 Singles Energy            =      -0.0000000000000003 [Eh]
	 Same-Spin Energy          =      -0.6765215190000631 [Eh]
	 Opposite-Spin Energy      =      -2.0168829615197201 [Eh]
	 Correlation Energy        =      -2.6934044805197837 [Eh]
	 Total Energy              =    -652.8710616066867942 [Eh]

	 ================> DF-SCS-MP2 Energies <==================
	-----------------------------------------------------------
	 SCS Same-Spin Scale       =       0.3333333333333333 [-]
	 SCS Opposite-Spin Scale   =       1.2000000000000000 [-]
	 SCS Same-Spin Energy      =      -0.2255071730000210 [Eh]
	 SCS Opposite-Spin Energy  =      -2.4202595538236640 [Eh]
	 SCS Correlation Energy    =      -2.6457667268236853 [Eh]
	 SCS Total Energy          =    -652.8234238529906861 [Eh]
	-----------------------------------------------------------

  -Total Gradient:
     Atom            X                  Y                   Z
    ------   -----------------  -----------------  -----------------
       1        0.006565001396    -0.000227662158    -0.005792230188
       2       -0.001079396052     0.001416372611     0.002472432954
       3       -0.003425721849    -0.000794997667     0.002411993315
       4       -0.002628073501     0.003264690463     0.001510752658
       5       -0.003608266410    -0.000043192928    -0.005042112239
       6       -0.005997973989     0.000318362552     0.002226304554
       7       -0.002579266047     0.003703588899     0.003552475100
       8       -0.004760989441     0.002381382130     0.002498905825
       9        0.002290146623    -0.001008677669    -0.002500618842
      10        0.000487084835     0.004049688859     0.008394292041
      11        0.010125289397    -0.009980896156     0.003529626364
      12        0.006369777409    -0.003050751637    -0.003939200293
      13        0.001729411131     0.001048411979    -0.006650391737
      14       -0.001220706737     0.001416823396    -0.000983851229
      15       -0.001847059032     0.000678934416    -0.001646692245
      16       -0.001276992284    -0.000121012102    -0.001699125766
      17       -0.000610310694    -0.000737736784    -0.001385876183
      18        0.001179533346     0.001022471166     0.000648902878
      19        0.000596883520     0.000417520399     0.002192957937
      20        0.001153779010    -0.000461725347    -0.000846169844
      21        0.001093071540    -0.000711861684    -0.000559371392
      22       -0.002555222166    -0.002579732736     0.001606996315

*** Psi4 exiting successfully. Buy a developer a beer!
