                               Psi4 1.1 release

  ==> Input File <==

--------------------------------------------------------------------------

memory 5 Gb

molecule phepyrOH_anion {
  symmetry C1
  -1 1
  C      1.885   -1.036   -0.112
  C      2.878   -1.652   2.002
  C      0.807   -0.463   0.561
  C      1.800   -1.079   2.676
  C      3.820   -3.040   -1.195
  C      5.340   -1.984   0.341
  C      4.925   -3.585   -1.830
  C      6.376   -2.576   -0.363
  C      2.921   -1.631   0.608
  C      4.040   -2.226   -0.090
  C      0.764   -0.484   1.955
  N      6.202   -3.373   -1.441
  O      -0.227   0.042   2.574
  H      1.904   -1.011   -1.199
  H      3.678   -2.112   2.577
  H      0.011   -0.006   -0.025
  H      1.791   -1.108   3.764
  H      2.820   -3.252   -1.562
  H      5.550   -1.354   1.199
  H      4.807   -4.226   -2.697
  H      7.408   -2.419   -0.066
  units Angstrom
}

dih_string = "1 9 10 5 315"
set optking fixed_dihedral = $dih_string

optimize('MP2/aug-cc-PVTZ')
--------------------------------------------------------------------------

    Molecular point group: c1
  Charge       = -1
  Multiplicity = 1
  Basis Set: AUG-CC-PVTZ
    Blend: AUG-CC-PVTZ
  Basis Set: (AUG-CC-PVTZ AUX)
    Blend: AUG-CC-PVTZ-JKFIT

    Orbital Energies (a.u.)
    -----------------------

    Doubly Occupied:

       1A    -20.293521     2A    -15.453048     3A    -11.168934
       4A    -11.168873     5A    -11.143734     6A    -11.121066
       7A    -11.121006     8A    -11.112385     9A    -11.098250
      10A    -11.098227    11A    -11.073995    12A    -11.058871
      13A    -11.058829    14A     -1.140929    15A     -1.125686
      16A     -1.018941    17A     -0.957212    18A     -0.925051
      19A     -0.865828    20A     -0.836985    21A     -0.747395
      22A     -0.732819    23A     -0.679340    24A     -0.647458
      25A     -0.595478    26A     -0.552438    27A     -0.543519
      28A     -0.502071    29A     -0.491970    30A     -0.485473
      31A     -0.481278    32A     -0.440508    33A     -0.429387
      34A     -0.411277    35A     -0.406276    36A     -0.376180
      37A     -0.356992    38A     -0.348769    39A     -0.309955
      40A     -0.301823    41A     -0.248367    42A     -0.243609
      43A     -0.211322    44A     -0.196659    45A     -0.105209

  @DF-RHF Final Energy:  -550.71500948100720

   => Energetics <=

    Nuclear Repulsion Energy =            686.4544243968317687
    One-Electron Energy =               -2122.9649789282175334
    Two-Electron Energy =                 885.7955450503786778
    DFT Exchange-Correlation Energy =       0.0000000000000000
    Empirical Dispersion Energy =           0.0000000000000000
    PCM Polarization Energy =               0.0000000000000000
    EFP Energy =                            0.0000000000000000
    Total Energy =                       -550.7150094810072005
  Basis Set: (AUG-CC-PVTZ AUX)
    Blend: AUG-CC-PVTZ-RI
    Molecular point group: c1

    Geometry (in Angstrom), charge = -1, multiplicity = 1:

       Center              X                  Y                   Z               Mass
    ------------   -----------------  -----------------  -----------------  -----------------
           C         -1.279025722960     0.723618605757    -0.568514120877    12.000000000000
           C         -0.286025722960     0.107618605757     1.545485879123    12.000000000000
           C         -2.357025722960     1.296618605757     0.104485879123    12.000000000000
           C         -1.364025722960     0.680618605757     2.219485879123    12.000000000000
           C          0.655974277040    -1.280381394243    -1.651514120877    12.000000000000
           C          2.175974277040    -0.224381394243    -0.115514120877    12.000000000000
           C          1.760974277040    -1.825381394243    -2.286514120877    12.000000000000
           C          3.211974277040    -0.816381394243    -0.819514120877    12.000000000000
           C         -0.243025722960     0.128618605757     0.151485879123    12.000000000000
           C          0.875974277040    -0.466381394243    -0.546514120877    12.000000000000
           C         -2.400025722960     1.275618605757     1.498485879123    12.000000000000
           N          3.037974277040    -1.613381394243    -1.897514120877    14.003074004780
           O         -3.391025722960     1.801618605757     2.117485879123    15.994914619560
           H         -1.260025722960     0.748618605757    -1.655514120877     1.007825032070
           H          0.513974277040    -0.352381394243     2.120485879123     1.007825032070
           H         -3.153025722960     1.753618605757    -0.481514120877     1.007825032070
           H         -1.373025722960     0.651618605757     3.307485879123     1.007825032070
           H         -0.344025722960    -1.492381394243    -2.018514120877     1.007825032070
           H          2.385974277040     0.405618605757     0.742485879123     1.007825032070
           H          1.642974277040    -2.466381394243    -3.153514120877     1.007825032070
           H          4.243974277040    -0.659381394243    -0.522514120877     1.007825032070

  Basis Set: AUG-CC-PVTZ
    Blend: AUG-CC-PVTZ
  Basis Set: (AUG-CC-PVTZ AUX)
    Blend: AUG-CC-PVTZ-JKFIT
  Basis Set: (AUG-CC-PVTZ AUX)
    Blend: AUG-CC-PVTZ-JKFIT
	 Reference Energy          =    -550.7150094810072005 [Eh]
	 Singles Energy            =      -0.0000000000000004 [Eh]
	 Same-Spin Energy          =      -0.6137438886129756 [Eh]
	 Opposite-Spin Energy      =      -1.8379796739338461 [Eh]
	 Correlation Energy        =      -2.4517235625468223 [Eh]
	 Total Energy              =    -553.1667330435540180 [Eh]

	 ================> DF-SCS-MP2 Energies <==================
	-----------------------------------------------------------
	 SCS Same-Spin Scale       =       0.3333333333333333 [-]
	 SCS Opposite-Spin Scale   =       1.2000000000000000 [-]
	 SCS Same-Spin Energy      =      -0.2045812962043252 [Eh]
	 SCS Opposite-Spin Energy  =      -2.2055756087206153 [Eh]
	 SCS Correlation Energy    =      -2.4101569049249409 [Eh]
	 SCS Total Energy          =    -553.1251663859321752 [Eh]
	-----------------------------------------------------------

  -Total Gradient:
     Atom            X                  Y                   Z
    ------   -----------------  -----------------  -----------------
       1        0.017890042767    -0.003117257793    -0.006154731336
       2        0.010462817606    -0.011928720263    -0.011570782136
       3       -0.022739099109     0.011392404262     0.037683905987
       4       -0.039897066517     0.021744952919     0.002297392348
       5       -0.013419001565     0.003293550771     0.009874177644
       6       -0.010635057552     0.010772082989     0.006773111107
       7       -0.009882694484    -0.002419818495    -0.000966885789
       8       -0.000748978627     0.007463685578     0.006798436581
       9       -0.011009051010     0.005858550158     0.006812750905
      10        0.018836052122    -0.010408458264    -0.011970898175
      11        0.048896806012    -0.025804532494    -0.031056318268
      12        0.007649279456    -0.004125017776    -0.004896228871
      13        0.000825246201    -0.000505201336    -0.000438478232
      14       -0.002848338025     0.000690375949    -0.003077684436
      15        0.001273191550     0.000188906231     0.003929581411
      16       -0.002299418589     0.000566565844    -0.008898896782
      17        0.005812763701    -0.002421496194     0.006359788545
      18       -0.003734790748    -0.001825231157    -0.004667232303
      19        0.003510461369     0.001366430890     0.004023806704
      20        0.000365385410    -0.000394128779    -0.001420156566
      21        0.001691450022    -0.000387643027     0.000565341664

*** Psi4 exiting successfully. Buy a developer a beer!
