                               Psi4 1.1 release

  ==> Input File <==

--------------------------------------------------------------------------

memory 1000 mb

molecule butane {
  symmetry C1
  0 1
  H      5.521   2.318   -8.057
  H      4.137   3.278   -7.591
  H      4.575   1.866   -6.660
  C      4.535   2.286   -7.643
  H      2.645   1.383   -8.122
  H      3.590   1.836   -9.520
  C      3.631   1.416   -8.537
  H      3.665   -0.647   -7.940
  H      4.104   -0.384   -9.610
  C      4.203   -0.012   -8.612
  H      6.088   -0.983   -8.270
  H      5.791   0.381   -7.220
  H      6.230   0.644   -8.890
  C      5.691   0.009   -8.218
  units Angstrom
}

dih_string = "14 10 7 4 340"
set optking fixed_dihedral = $dih_string

optimize('MP2/aug-cc-pvtz')
--------------------------------------------------------------------------

    Molecular point group: c1
  Charge       = 0
  Multiplicity = 1
  Basis Set: AUG-CC-PVTZ
    Blend: AUG-CC-PVTZ
  Basis Set: (AUG-CC-PVTZ AUX)
    Blend: AUG-CC-PVTZ-JKFIT
  @DF-RHF Final Energy:  -157.33560810540061
    Total Energy =                       -157.3356081054006097
  Basis Set: (AUG-CC-PVTZ AUX)
    Blend: AUG-CC-PVTZ-RI
    Molecular point group: c1
  Basis Set: AUG-CC-PVTZ
    Blend: AUG-CC-PVTZ
  Basis Set: (AUG-CC-PVTZ AUX)
    Blend: AUG-CC-PVTZ-JKFIT
  Basis Set: (AUG-CC-PVTZ AUX)
    Blend: AUG-CC-PVTZ-JKFIT
	 Reference Energy          =    -157.3356081054006097 [Eh]
	 Singles Energy            =      -0.0000000000000001 [Eh]
	 Same-Spin Energy          =      -0.1673466857532231 [Eh]
	 Opposite-Spin Energy      =      -0.6420197476076563 [Eh]
	 Correlation Energy        =      -0.8093664333608795 [Eh]
	 Total Energy              =    -158.1449745387614882 [Eh]
	 SCS Total Energy          =    -158.1618140311142042 [Eh]
  @DF-RHF Final Energy:  -157.34413472306653
    Total Energy =                       -157.3441347230665315
  @DF-RHF Final Energy:  -157.34674900242214
    Total Energy =                       -157.3467490024221433
  @DF-RHF Final Energy:  -157.34787751928550
    Total Energy =                       -157.3478775192855039
  @DF-RHF Final Energy:  -157.34833137369486
    Total Energy =                       -157.3483313736948617
  @DF-RHF Final Energy:  -157.34838644191777
    Total Energy =                       -157.3483864419177678
  @DF-RHF Final Energy:  -157.34839496437473
    Total Energy =                       -157.3483949643747337
  Charge       = 0
  Multiplicity = 1
  Basis Set: AUG-CC-PVTZ
    Blend: AUG-CC-PVTZ
  Basis Set: (AUG-CC-PVTZ AUX)
    Blend: AUG-CC-PVTZ-JKFIT

    Orbital Energies (a.u.)
    -----------------------

    Doubly Occupied:

       1A    -11.211849     2A    -11.211270     3A    -11.205301
       4A    -11.205296     5A     -1.070455     6A     -0.975888
       7A     -0.878907     8A     -0.768893     9A     -0.635161
      10A     -0.617359    11A     -0.567098    12A     -0.540018
      13A     -0.525067    14A     -0.510543    15A     -0.463801
      16A     -0.458684    17A     -0.445386

  @DF-RHF Final Energy:  -157.34839538614909

   => Energetics <=

    Nuclear Repulsion Energy =            133.6830324383267055
    One-Electron Energy =                -475.4809025518952126
    Two-Electron Energy =                 184.4494747274193855
    DFT Exchange-Correlation Energy =       0.0000000000000000
    Empirical Dispersion Energy =           0.0000000000000000
    PCM Polarization Energy =               0.0000000000000000
    EFP Energy =                            0.0000000000000000
    Total Energy =                       -157.3483953861490932
  Basis Set: (AUG-CC-PVTZ AUX)
    Blend: AUG-CC-PVTZ-RI
    Molecular point group: c1
  Basis Set: AUG-CC-PVTZ
    Blend: AUG-CC-PVTZ
  Basis Set: (AUG-CC-PVTZ AUX)
    Blend: AUG-CC-PVTZ-JKFIT
  Basis Set: (AUG-CC-PVTZ AUX)
    Blend: AUG-CC-PVTZ-JKFIT
	 Reference Energy          =    -157.3483953861490932 [Eh]
	 Singles Energy            =      -0.0000000000000000 [Eh]
	 Same-Spin Energy          =      -0.1658423664102976 [Eh]
	 Opposite-Spin Energy      =      -0.6406451140485730 [Eh]
	 Correlation Energy        =      -0.8064874804588706 [Eh]
	 Total Energy              =    -158.1548828666079771 [Eh]

	 ================> DF-SCS-MP2 Energies <==================
	-----------------------------------------------------------
	 SCS Same-Spin Scale       =       0.3333333333333333 [-]
	 SCS Opposite-Spin Scale   =       1.2000000000000000 [-]
	 SCS Same-Spin Energy      =      -0.0552807888034325 [Eh]
	 SCS Opposite-Spin Energy  =      -0.7687741368582877 [Eh]
	 SCS Correlation Energy    =      -0.8240549256617202 [Eh]
	 SCS Total Energy          =    -158.1724503118108203 [Eh]
	-----------------------------------------------------------

  -Total Gradient:
     Atom            X                  Y                   Z
    ------   -----------------  -----------------  -----------------
       1        0.000004834872     0.000004748564     0.000004236847
       2        0.000004528534    -0.000008580974     0.000000808395
       3        0.000001358515    -0.000006064100    -0.000000308532
       4        0.002048717528     0.001098644650    -0.003447433522
       5        0.000007730884     0.000010699482     0.000009921935
       6        0.000011388710    -0.000020326575     0.000010565744
       7       -0.003289458052    -0.001830818828     0.006601057946
       8        0.000001907984     0.000025060556    -0.000004245638
       9        0.000016231327    -0.000001846104     0.000001369576
      10        0.001998136166     0.001357108722    -0.007205448608
      11       -0.000002101656     0.000009757793     0.000000549480
      12        0.000007946826     0.000000095959     0.000001778737
      13       -0.000002607746     0.000005301821    -0.000000182125
      14       -0.000808613893    -0.000643780965     0.004027329767

  **** Optimization is complete! (in 8 steps) ****
    Final optimized geometry and variables:
    Molecular point group: c1

    Geometry (in Angstrom), charge = 0, multiplicity = 1:

    H            0.932215287248     1.602036964727     0.167831889901
    H           -0.541718066686     2.439490370419     0.626491048127
    H            0.067488152519     1.128664429254     1.623183392229
    C           -0.056809687648     1.466276301544     0.595790618837
    H           -1.894793776226     0.438019769619     0.186496479854
    H           -0.990639502588     0.908789540986    -1.223349353032
    C           -0.886969951035     0.490799938674    -0.221424893663
    H           -0.826475016791    -1.575144112018     0.373751298657
    H           -0.539599345981    -1.330742781035    -1.324705071853
    C           -0.311054859196    -0.930128312342    -0.338718212123
    H            1.496254474578    -2.089453054469    -0.180164005601
    H            1.430052760199    -0.735747027458     0.936648504605
    H            1.765826039375    -0.456391688025    -0.766024355728
    C            1.179364275746    -1.054623005830    -0.070934812324

*** Psi4 exiting successfully. Buy a developer a beer!
