                               Psi4 1.1 release

  ==> Input File <==

--------------------------------------------------------------------------

memory 5 Gb

molecule phepyrFOH_neutral {
  symmetry C1
  0 1
  C      1.885   -1.036   -0.112
  C      0.807   -0.463   0.561
  C      3.825   -3.269   -0.988
  C      5.328   -1.753   0.119
  C      1.800   -1.079   2.676
  C      4.927   -3.802   -1.637
  C      6.363   -2.354   -0.579
  C      2.921   -1.631   0.608
  C      4.038   -2.225   -0.095
  C      0.764   -0.484   1.955
  C      2.878   -1.652   2.002
  N      6.195   -3.370   -1.455
  O      -0.289   0.076   2.612
  F      3.866   -2.220   2.709
  H      1.904   -1.012   -1.199
  H      0.002   -0.002   -0.006
  H      2.833   -3.663   -1.183
  H      5.532   -0.940   0.809
  H      1.772   -1.099   3.762
  H      4.814   -4.616   -2.345
  H      7.387   -2.023   -0.446
  H      -0.595   -0.513   3.320
  units Angstrom
}

dih_string = "2 10 13 22 135"
set optking fixed_dihedral = $dih_string

optimize('MP2/aug-cc-PVTZ')
--------------------------------------------------------------------------

    Molecular point group: c1
  Charge       = 0
  Multiplicity = 1
  Basis Set: AUG-CC-PVTZ
    Blend: AUG-CC-PVTZ
  Basis Set: (AUG-CC-PVTZ AUX)
    Blend: AUG-CC-PVTZ-JKFIT
  @DF-RHF Final Energy:  -650.17160673665308
    Total Energy =                       -650.1716067366530751
  Basis Set: (AUG-CC-PVTZ AUX)
    Blend: AUG-CC-PVTZ-RI
    Molecular point group: c1
  Basis Set: AUG-CC-PVTZ
    Blend: AUG-CC-PVTZ
  Basis Set: (AUG-CC-PVTZ AUX)
    Blend: AUG-CC-PVTZ-JKFIT
  Basis Set: (AUG-CC-PVTZ AUX)
    Blend: AUG-CC-PVTZ-JKFIT
	 Reference Energy          =    -650.1716067366530751 [Eh]
	 Singles Energy            =      -0.0000000000000002 [Eh]
	 Same-Spin Energy          =      -0.6773085422061913 [Eh]
	 Opposite-Spin Energy      =      -2.0190209069842928 [Eh]
	 Correlation Energy        =      -2.6963294491904848 [Eh]
	 Total Energy              =    -652.8679361858435186 [Eh]
	 SCS Total Energy          =    -652.8202013391029368 [Eh]
  @DF-RHF Final Energy:  -650.17768277882271
    Total Energy =                       -650.1776827788226001
  @DF-RHF Final Energy:  -650.17923467739172
    Total Energy =                       -650.1792346773916051
    Molecular point group: c1
  Charge       = 0
  Multiplicity = 1
  Basis Set: AUG-CC-PVTZ
    Blend: AUG-CC-PVTZ
  Basis Set: (AUG-CC-PVTZ AUX)
    Blend: AUG-CC-PVTZ-JKFIT

    Orbital Energies (a.u.)
    -----------------------

    Doubly Occupied:

       1A    -26.321988     2A    -20.602578     3A    -15.563752
       4A    -11.345415     5A    -11.322200     6A    -11.273391
       7A    -11.272437     8A    -11.268713     9A    -11.262368
      10A    -11.256996    11A    -11.250846    12A    -11.242918
      13A    -11.239804    14A    -11.238351    15A     -1.640885
      16A     -1.418886    17A     -1.260207    18A     -1.185522
      19A     -1.112709    20A     -1.043847    21A     -1.035441
      22A     -1.023985    23A     -0.891364    24A     -0.876892
      25A     -0.856106    26A     -0.828327    27A     -0.771466
      28A     -0.742324    29A     -0.727986    30A     -0.708980
      31A     -0.696399    32A     -0.666983    33A     -0.663258
      34A     -0.643641    35A     -0.635699    36A     -0.627825
      37A     -0.606766    38A     -0.598146    39A     -0.566987
      40A     -0.542573    41A     -0.541156    42A     -0.532346
      43A     -0.517804    44A     -0.499142    45A     -0.418967
      46A     -0.395251    47A     -0.360953    48A     -0.348900
      49A     -0.330358

  @DF-RHF Final Energy:  -650.17929693832582

   => Energetics <=

    Nuclear Repulsion Energy =            813.7051592301185110
    One-Electron Energy =               -2502.2092384815232435
    Two-Electron Energy =                1038.3247823130789129
    DFT Exchange-Correlation Energy =       0.0000000000000000
    Empirical Dispersion Energy =           0.0000000000000000
    PCM Polarization Energy =               0.0000000000000000
    EFP Energy =                            0.0000000000000000
    Total Energy =                       -650.1792969383257059
  Basis Set: (AUG-CC-PVTZ AUX)
    Blend: AUG-CC-PVTZ-RI
    Molecular point group: c1

    Geometry (in Angstrom), charge = 0, multiplicity = 1:

       Center              X                  Y                   Z               Mass
    ------------   -----------------  -----------------  -----------------  -----------------
           C         -1.355245359475     0.707032360890    -0.760637525384    12.000000000000
           C         -2.439466125752     1.265878345205    -0.104930920093    12.000000000000
           C          0.653996836747    -1.446711201853    -1.716926836701    12.000000000000
           C          2.160916655455    -0.033437112895    -0.545159144473    12.000000000000
           C         -1.404280462515     0.755844076990     2.003491961135    12.000000000000
           C          1.747471007686    -1.978318013504    -2.383366943353    12.000000000000
           C          3.190687661248    -0.625371489830    -1.259081169521    12.000000000000
           C         -0.280883600101     0.154939691190    -0.066360475471    12.000000000000
           C          0.852953120087    -0.446954988840    -0.771809800064    12.000000000000
           C         -2.459563273276     1.294939694650     1.280832618822    12.000000000000
           C         -0.345504968593     0.196551091241     1.319751329928    12.000000000000
           N          3.004477104671    -1.585337970654    -2.168766530684    14.003074004780
           O         -3.529484049099     1.882081677896     1.902982266722    15.994914619560
           F          0.658312910408    -0.335445944590     2.039727342391    18.998403224000
           H         -1.332695406391     0.690206416230    -1.840233066728     1.007825032070
           H         -3.266623310766     1.688122876195    -0.652334872673     1.007825032070
           H         -0.341743452083    -1.808337961578    -1.926313449526     1.007825032070
           H          2.371635899421     0.741497878129     0.175946147504     1.007825032070
           H         -1.396089228539     0.772103414684     3.082023814439     1.007825032070
           H          1.608658660681    -2.758379499269    -3.119166205103     1.007825032070
           H          4.212712284866    -0.313186390998    -1.096635104361     1.007825032070
           H         -3.818489020122     1.321460773091     2.628378235919     1.007825032070

  Basis Set: AUG-CC-PVTZ
    Blend: AUG-CC-PVTZ
  Basis Set: (AUG-CC-PVTZ AUX)
    Blend: AUG-CC-PVTZ-JKFIT
  Basis Set: (AUG-CC-PVTZ AUX)
    Blend: AUG-CC-PVTZ-JKFIT
	 Reference Energy          =    -650.1792969383258196 [Eh]
	 Singles Energy            =      -0.0000000000000007 [Eh]
	 Same-Spin Energy          =      -0.6763411154582678 [Eh]
	 Opposite-Spin Energy      =      -2.0164960647536150 [Eh]
	 Correlation Energy        =      -2.6928371802118836 [Eh]
	 Total Energy              =    -652.8721341185377014 [Eh]

	 ================> DF-SCS-MP2 Energies <==================
	-----------------------------------------------------------
	 SCS Same-Spin Scale       =       0.3333333333333333 [-]
	 SCS Opposite-Spin Scale   =       1.2000000000000000 [-]
	 SCS Same-Spin Energy      =      -0.2254470384860893 [Eh]
	 SCS Opposite-Spin Energy  =      -2.4197952777043379 [Eh]
	 SCS Correlation Energy    =      -2.6452423161904282 [Eh]
	 SCS Total Energy          =    -652.8245392545162531 [Eh]
	-----------------------------------------------------------

  -Total Gradient:
     Atom            X                  Y                   Z
    ------   -----------------  -----------------  -----------------
       1        0.001039363663     0.000861768550     0.000128455335
       2       -0.001479913575    -0.001826194041     0.000219555971
       3        0.000145261414    -0.000875476739     0.001123021698
       4        0.000032994346     0.000775007498    -0.001166231858
       5        0.000677195307    -0.000260049182    -0.000059817053
       6        0.000237233752    -0.000104700744    -0.000081782883
       7        0.000264261105     0.000066608547     0.000098916962
       8       -0.001216216710     0.000460835315    -0.000344858270
       9        0.000584665235    -0.000297814950    -0.000573558033
      10        0.001219896180     0.002799395412    -0.000705942542
      11       -0.000069592024    -0.001260319327     0.001052009882
      12       -0.000311705388    -0.000067026608     0.000010398373
      13        0.001683015566     0.000870764024     0.002444359924
      14       -0.000521055467     0.000190295605     0.000085519049
      15       -0.000147433753    -0.000100114622    -0.000075196023
      16        0.000050237776     0.000052811389    -0.000154908712
      17       -0.000099116146     0.000141923551    -0.000208810748
      18        0.000004123392     0.000222293445     0.000106128004
      19       -0.000190694019     0.000002885974     0.000127253889
      20       -0.000022758342    -0.000142721419    -0.000115476999
      21        0.000055066307     0.000027572734     0.000017924212
      22       -0.001934828640    -0.001537744401    -0.001926960172

*** Psi4 exiting successfully. Buy a developer a beer!
