                               Psi4 1.1 release

  ==> Input File <==

--------------------------------------------------------------------------

memory 5 Gb

molecule phepyrFOH_cation {
  symmetry C1
  1 1
  C      1.885   -1.036   -0.112
  C      0.807   -0.463   0.561
  C      4.830   -1.443   -0.930
  C      4.321   -3.578   0.063
  C      1.800   -1.079   2.676
  C      5.894   -2.040   -1.592
  C      5.398   -4.120   -0.624
  C      2.921   -1.631   0.608
  C      4.038   -2.225   -0.095
  C      0.764   -0.484   1.955
  C      2.878   -1.652   2.002
  N      6.144   -3.345   -1.422
  O      -0.289   0.076   2.612
  F      3.866   -2.220   2.709
  H      1.904   -1.012   -1.199
  H      0.002   -0.002   -0.006
  H      4.632   -0.385   -1.072
  H      3.719   -4.212   0.708
  H      1.772   -1.099   3.762
  H      6.561   -1.511   -2.259
  H      5.691   -5.159   -0.561
  H      6.930   -3.764   -1.918
  H      -0.109   1.011   2.800
  units Angstrom
}

dih_string = "2 10 13 23 270"
set optking fixed_dihedral = $dih_string

optimize('MP2/aug-cc-PVTZ')
--------------------------------------------------------------------------

    Molecular point group: c1
  Charge       = 1
  Multiplicity = 1
  Basis Set: AUG-CC-PVTZ
    Blend: AUG-CC-PVTZ
  Basis Set: (AUG-CC-PVTZ AUX)
    Blend: AUG-CC-PVTZ-JKFIT
  @DF-RHF Final Energy:  -650.55429603056882
    Total Energy =                       -650.5542960305688212
  Basis Set: (AUG-CC-PVTZ AUX)
    Blend: AUG-CC-PVTZ-RI
    Molecular point group: c1
  Basis Set: AUG-CC-PVTZ
    Blend: AUG-CC-PVTZ
  Basis Set: (AUG-CC-PVTZ AUX)
    Blend: AUG-CC-PVTZ-JKFIT
  Basis Set: (AUG-CC-PVTZ AUX)
    Blend: AUG-CC-PVTZ-JKFIT
	 Reference Energy          =    -650.5542960305688212 [Eh]
	 Singles Energy            =      -0.0000000000000007 [Eh]
	 Same-Spin Energy          =      -0.6686082098610091 [Eh]
	 Opposite-Spin Energy      =      -2.0132126115668481 [Eh]
	 Correlation Energy        =      -2.6818208214278583 [Eh]
	 Total Energy              =    -653.2361168519967123 [Eh]
	 SCS Total Energy          =    -653.1930205677360846 [Eh]
  @DF-RHF Final Energy:  -650.55906905272673
    Total Energy =                       -650.5590690527267270
  @DF-RHF Final Energy:  -650.56010877754943
    Total Energy =                       -650.5601087775494307
  @DF-RHF Final Energy:  -650.56043486165663
    Total Energy =                       -650.5604348616566313
  @DF-RHF Final Energy:  -650.56070409470271
    Total Energy =                       -650.5607040947027144
  @DF-RHF Final Energy:  -650.56104744912545
    Total Energy =                       -650.5610474491254536
  @DF-RHF Final Energy:  -650.56141228675210
    Total Energy =                       -650.5614122867521019
  @DF-RHF Final Energy:  -650.56173943804231
    Total Energy =                       -650.5617394380424230
  @DF-RHF Final Energy:  -650.56199645668266
    Total Energy =                       -650.5619964566826638
  @DF-RHF Final Energy:  -650.56217504038034
    Total Energy =                       -650.5621750403802253
  @DF-RHF Final Energy:  -650.56227158942545
    Total Energy =                       -650.5622715894253361
  @DF-RHF Final Energy:  -650.56228270514725
    Total Energy =                       -650.5622827051472541
  @DF-RHF Final Energy:  -650.56223988153647
    Total Energy =                       -650.5622398815364704
  @DF-RHF Final Energy:  -650.56229585060908
    Total Energy =                       -650.5622958506089617
  Charge       = 1
  Multiplicity = 1
  Basis Set: AUG-CC-PVTZ
    Blend: AUG-CC-PVTZ
  Basis Set: (AUG-CC-PVTZ AUX)
    Blend: AUG-CC-PVTZ-JKFIT

    Orbital Energies (a.u.)
    -----------------------

    Doubly Occupied:

       1A    -26.444524     2A    -20.695577     3A    -15.834549
       4A    -11.484229     5A    -11.482191     6A    -11.470702
       7A    -11.456758     8A    -11.437264     9A    -11.415996
      10A    -11.412624    11A    -11.388135    12A    -11.386914
      13A    -11.360199    14A    -11.357247    15A     -1.764681
      16A     -1.516520    17A     -1.512216    18A     -1.325872
      19A     -1.276564    20A     -1.241831    21A     -1.170270
      22A     -1.159508    23A     -1.068390    24A     -1.064992
      25A     -0.989314    26A     -0.974957    27A     -0.963339
      28A     -0.894065    29A     -0.875267    30A     -0.866781
      31A     -0.842621    32A     -0.833284    33A     -0.819513
      34A     -0.811013    35A     -0.795008    36A     -0.776496
      37A     -0.761488    38A     -0.756949    39A     -0.742545
      40A     -0.719940    41A     -0.707334    42A     -0.675200
      43A     -0.659078    44A     -0.645586    45A     -0.604003
      46A     -0.583035    47A     -0.540968    48A     -0.476520
      49A     -0.459756

  @DF-RHF Final Energy:  -650.56230434488191

   => Energetics <=

    Nuclear Repulsion Energy =            830.6639516071854814
    One-Electron Energy =               -2521.4488897656092377
    Two-Electron Energy =                1040.2226338135417336
    DFT Exchange-Correlation Energy =       0.0000000000000000
    Empirical Dispersion Energy =           0.0000000000000000
    PCM Polarization Energy =               0.0000000000000000
    EFP Energy =                            0.0000000000000000
    Total Energy =                       -650.5623043448820226
  Basis Set: (AUG-CC-PVTZ AUX)
    Blend: AUG-CC-PVTZ-RI
    Molecular point group: c1
  Basis Set: AUG-CC-PVTZ
    Blend: AUG-CC-PVTZ
  Basis Set: (AUG-CC-PVTZ AUX)
    Blend: AUG-CC-PVTZ-JKFIT
  Basis Set: (AUG-CC-PVTZ AUX)
    Blend: AUG-CC-PVTZ-JKFIT
	 Reference Energy          =    -650.5623043448819089 [Eh]
	 Singles Energy            =      -0.0000000000000004 [Eh]
	 Same-Spin Energy          =      -0.6684914251030130 [Eh]
	 Opposite-Spin Energy      =      -2.0120725261696322 [Eh]
	 Correlation Energy        =      -2.6805639512726454 [Eh]
	 Total Energy              =    -653.2428682961545974 [Eh]

	 ================> DF-SCS-MP2 Energies <==================
	-----------------------------------------------------------
	 SCS Same-Spin Scale       =       0.3333333333333333 [-]
	 SCS Opposite-Spin Scale   =       1.2000000000000000 [-]
	 SCS Same-Spin Energy      =      -0.2228304750343376 [Eh]
	 SCS Opposite-Spin Energy  =      -2.4144870314035587 [Eh]
	 SCS Correlation Energy    =      -2.6373175064378969 [Eh]
	 SCS Total Energy          =    -653.1996218513197618 [Eh]
	-----------------------------------------------------------

  -Total Gradient:
     Atom            X                  Y                   Z
    ------   -----------------  -----------------  -----------------
       1        0.000014577969    -0.000014904838     0.000009933324
       2       -0.000185424828    -0.000321744377    -0.000068957312
       3       -0.000011327908    -0.000017607592     0.000022007219
       4       -0.000031277888     0.000013615381     0.000014518983
       5        0.000015163620    -0.000008010429     0.000004379524
       6        0.000004161937    -0.000012507173     0.000004343171
       7        0.000000514258     0.000002900308    -0.000003170590
       8       -0.000036837083     0.000017042054    -0.000002791813
       9        0.000043031264     0.000003955815    -0.000018811841
      10        0.000334798791     0.000415442147     0.000210688525
      11       -0.000002175073     0.000016606939    -0.000009397436
      12       -0.000015306605     0.000016054632     0.000004827657
      13       -0.000290408697     0.000110736545    -0.000579117157
      14        0.000006735814    -0.000002340099    -0.000016066014
      15       -0.000002341891     0.000000808738     0.000001803337
      16        0.000003639477    -0.000002848658     0.000009852186
      17        0.000000645298    -0.000004867143     0.000002011295
      18        0.000008037859    -0.000003498207    -0.000009413689
      19       -0.000007827825     0.000006983632    -0.000009858536
      20       -0.000002183489    -0.000007351834     0.000005018231
      21        0.000001287658     0.000009708859    -0.000003610300
      22        0.000000953999     0.000000693050     0.000001206025
      23        0.000151563335    -0.000218867747     0.000430605201

  **** Optimization is complete! (in 15 steps) ****
    Final optimized geometry and variables:
    Molecular point group: c1

    Geometry (in Angstrom), charge = 1, multiplicity = 1:

    C           -1.151726919990     1.041962000498    -0.722100404076
    C           -2.228151762408     1.616801828882    -0.079069569906
    C            1.478493251658     0.261627463140    -1.800478953265
    C            1.348405307906    -1.672810245321    -0.402533104988
    C           -1.555420557817     0.565397158821     1.980418632296
    C            2.522435219522    -0.316032203472    -2.479213521131
    C            2.393400638674    -2.223176062379    -1.103371462631
    C           -0.258147587879     0.205050050644    -0.043167801055
    C            0.857456144310    -0.404697017530    -0.737560303537
    C           -2.424899604445     1.389282113875     1.279560757778
    C           -0.499774980111    -0.009920288831     1.312717562735
    N            2.948682612510    -1.535224190669    -2.113417908919
    O           -3.526753548629     1.889813265587     1.908391078696
    F            0.352087678744    -0.777368520447     2.014023616862
    H           -1.027587536350     1.200174848092    -1.782761895576
    H           -2.932742945037     2.230080854658    -0.617263053374
    H            1.166443208136     1.252908077338    -2.085448149353
    H            0.905525099376    -2.245574050257     0.393170823868
    H           -1.701881040483     0.375798239782     3.031276544612
    H            3.040229648584     0.158778740678    -3.295701592143
    H            2.801762289449    -3.197686266431    -0.893981988647
    H            3.721441017478    -1.951423101905    -2.617623691161
    H           -3.348163087947     2.769703437002     2.256386914592

*** Psi4 exiting successfully. Buy a developer a beer!
