                               Psi4 1.1 release

  ==> Input File <==

--------------------------------------------------------------------------

memory 5 Gb

molecule phepyrF {
  symmetry C1
  0 1
  C      1.885   -1.036   -0.112
  C      0.807   -0.463   0.561
  C      2.921   -1.631   0.608
  C      0.764   -0.484   1.955
  C      5.030   -2.841   2.072
  C      3.920   -2.293   4.135
  C      6.036   -3.418   2.830
  C      4.976   -2.896   4.800
  C      2.878   -1.652   2.002
  C      3.955   -2.270   2.745
  C      1.800   -1.079   2.676
  N      6.037   -3.461   4.181
  F      1.744   -1.089   4.016
  H      1.918   -1.020   -1.198
  H      0.000   -0.000   -0.000
  H      3.755   -2.073   0.068
  H      -0.076   -0.038   2.480
  H      5.093   -2.841   0.989
  H      3.098   -1.858   4.694
  H      6.897   -3.876   2.353
  H      4.996   -2.941   5.884
  units Angstrom
}

dih_string = "3 9 10 5 0.001"
set optking fixed_dihedral = $dih_string

optimize('MP2/aug-cc-PVTZ')
--------------------------------------------------------------------------

    Molecular point group: c1
  Charge       = 0
  Multiplicity = 1
  Basis Set: AUG-CC-PVTZ
    Blend: AUG-CC-PVTZ
  Basis Set: (AUG-CC-PVTZ AUX)
    Blend: AUG-CC-PVTZ-JKFIT
  @DF-RHF Final Energy:  -575.26522198693101
    Total Energy =                       -575.2652219869310102
  Basis Set: (AUG-CC-PVTZ AUX)
    Blend: AUG-CC-PVTZ-RI
    Molecular point group: c1
  Basis Set: AUG-CC-PVTZ
    Blend: AUG-CC-PVTZ
  Basis Set: (AUG-CC-PVTZ AUX)
    Blend: AUG-CC-PVTZ-JKFIT
  Basis Set: (AUG-CC-PVTZ AUX)
    Blend: AUG-CC-PVTZ-JKFIT
	 Reference Energy          =    -575.2652219869310102 [Eh]
	 Singles Energy            =      -0.0000000000000003 [Eh]
	 Same-Spin Energy          =      -0.6103362205654708 [Eh]
	 Opposite-Spin Energy      =      -1.8357793066501502 [Eh]
	 Correlation Energy        =      -2.4461155272156216 [Eh]
	 Total Energy              =    -577.7113375141466349 [Eh]
	 SCS Total Energy          =    -577.6716025617663490 [Eh]
  @DF-RHF Final Energy:  -575.27443936501538
    Total Energy =                       -575.2744393650153825
  @DF-RHF Final Energy:  -575.27958926872520
    Total Energy =                       -575.2795892687252035
  @DF-RHF Final Energy:  -575.28221193025831
    Total Energy =                       -575.2822119302583133
  @DF-RHF Final Energy:  -575.28358580726865
    Total Energy =                       -575.2835858072686506
  @DF-RHF Final Energy:  -575.28429754622346
    Total Energy =                       -575.2842975462234563
  @DF-RHF Final Energy:  -575.28468013611996
    Total Energy =                       -575.2846801361199596
  @DF-RHF Final Energy:  -575.28476575805882
    Total Energy =                       -575.2847657580588248
  Charge       = 0
  Multiplicity = 1
  Basis Set: AUG-CC-PVTZ
    Blend: AUG-CC-PVTZ
  Basis Set: (AUG-CC-PVTZ AUX)
    Blend: AUG-CC-PVTZ-JKFIT

    Orbital Energies (a.u.)
    -----------------------

    Doubly Occupied:

       1A    -26.321829     2A    -15.562804     3A    -11.343038
       4A    -11.275216     5A    -11.271706     6A    -11.270310
       7A    -11.269799     8A    -11.258998     9A    -11.258233
      10A    -11.251656    11A    -11.248381    12A    -11.239749
      13A    -11.234494    14A     -1.641821    15A     -1.260027
      16A     -1.187303    17A     -1.115501    18A     -1.040627
      19A     -1.033228    20A     -1.031787    21A     -0.895942
      22A     -0.876720    23A     -0.842691    24A     -0.832113
      25A     -0.759205    26A     -0.724467    27A     -0.720300
      28A     -0.708112    29A     -0.675616    30A     -0.663676
      31A     -0.654312    32A     -0.624082    33A     -0.608618
      34A     -0.599541    35A     -0.589060    36A     -0.554706
      37A     -0.543377    38A     -0.529785    39A     -0.521935
      40A     -0.502602    41A     -0.420637    42A     -0.419593
      43A     -0.355849    44A     -0.347256    45A     -0.327059

  @DF-RHF Final Energy:  -575.28480584420140

   => Energetics <=

    Nuclear Repulsion Energy =            713.8103925668253851
    One-Electron Energy =               -2199.3628791459173044
    Two-Electron Energy =                 910.2676807348905186
    DFT Exchange-Correlation Energy =       0.0000000000000000
    Empirical Dispersion Energy =           0.0000000000000000
    PCM Polarization Energy =               0.0000000000000000
    EFP Energy =                            0.0000000000000000
    Total Energy =                       -575.2848058442014008
  Basis Set: (AUG-CC-PVTZ AUX)
    Blend: AUG-CC-PVTZ-RI
    Molecular point group: c1
  Basis Set: AUG-CC-PVTZ
    Blend: AUG-CC-PVTZ
  Basis Set: (AUG-CC-PVTZ AUX)
    Blend: AUG-CC-PVTZ-JKFIT
  Basis Set: (AUG-CC-PVTZ AUX)
    Blend: AUG-CC-PVTZ-JKFIT
	 Reference Energy          =    -575.2848058442014008 [Eh]
	 Singles Energy            =      -0.0000000000000006 [Eh]
	 Same-Spin Energy          =      -0.6078736927534961 [Eh]
	 Opposite-Spin Energy      =      -1.8317689358521720 [Eh]
	 Correlation Energy        =      -2.4396426286056685 [Eh]
	 Total Energy              =    -577.7244484728071257 [Eh]

	 ================> DF-SCS-MP2 Energies <==================
	-----------------------------------------------------------
	 SCS Same-Spin Scale       =       0.3333333333333333 [-]
	 SCS Opposite-Spin Scale   =       1.2000000000000000 [-]
	 SCS Same-Spin Energy      =      -0.2026245642511654 [Eh]
	 SCS Opposite-Spin Energy  =      -2.1981227230226064 [Eh]
	 SCS Correlation Energy    =      -2.4007472872737723 [Eh]
	 SCS Total Energy          =    -577.6855531314752170 [Eh]
	-----------------------------------------------------------

  -Total Gradient:
     Atom            X                  Y                   Z
    ------   -----------------  -----------------  -----------------
       1       -0.000011696083     0.000005740537     0.000014797249
       2        0.000003985165    -0.000002359608    -0.000010211177
       3        0.000001330229     0.000002945711    -0.000002221771
       4       -0.000021519858     0.000012013659     0.000023989353
       5        0.000066318869    -0.000033229202     0.000002735496
       6        0.000002469022     0.000000738110    -0.000041661779
       7       -0.000032383914     0.000019598535    -0.000070723571
       8        0.000054934624    -0.000031767915    -0.000016734281
       9        0.000067340927    -0.000042044442     0.000047776854
      10       -0.000095203478     0.000045332847     0.000025053956
      11        0.000015853117    -0.000004526290    -0.000169040441
      12       -0.000021858358     0.000010673583     0.000061200503
      13       -0.000007364707     0.000001028357     0.000127454956
      14        0.000002800169    -0.000001785928    -0.000003114825
      15        0.000002403561    -0.000000606245    -0.000008243870
      16       -0.000004412743     0.000002756586    -0.000009535236
      17        0.000006853826    -0.000003914137     0.000012463385
      18       -0.000002918166     0.000002209796     0.000000288997
      19       -0.000022000870     0.000013871437     0.000004002455
      20        0.000003545260    -0.000002168212     0.000007758585
      21       -0.000008476581     0.000005492830     0.000003965163

  **** Optimization is complete! (in 9 steps) ****
    Final optimized geometry and variables:
    Molecular point group: c1

    Geometry (in Angstrom), charge = 0, multiplicity = 1:

    C           -1.369199668367     0.839377085266    -2.667171282156
    C           -2.462394247387     1.422240877449    -2.042967461839
    C           -0.365813751733     0.262231996415    -1.910509488907
    C           -2.526297607801     1.413659937896    -0.661369606407
    C            1.793451466399    -0.975337777599    -0.420579673044
    C            0.756492651937    -0.468998168105     1.638519584815
    C            2.821632466446    -1.564752811084     0.292981170721
    C            1.831020764050    -1.081220662943     2.265683398433
    C           -0.388920668378     0.230520045166    -0.509623224401
    C            0.708046870132    -0.398106214269     0.244130173362
    C           -1.509519120317     0.829969723328     0.068310874051
    N            2.863382013282    -1.630028999687     1.625740751206
    F           -1.656544245173     0.868542289121     1.408693554201
    H           -1.294253919433     0.832192066529    -3.743302086179
    H           -3.253495665275     1.876634242953    -2.618756460786
    H            0.465093453873    -0.179277525636    -2.432230546810
    H           -3.352668400017     1.852247484016    -0.125485058289
    H            1.863013684068    -0.979613462994    -1.494556219755
    H           -0.025367788795    -0.057234643485     2.246612764354
    H            3.654923417835    -2.007349296271    -0.235217508855
    H            1.856981829744    -1.129733708161     3.345361006899

*** Psi4 exiting successfully. Buy a developer a beer!
