                               Psi4 1.1 release

  ==> Input File <==

--------------------------------------------------------------------------

memory 5 Gb

molecule phepyrOH_cation {
  symmetry C1
  1 1
  C      1.885   -1.036   -0.112
  C      2.878   -1.652   2.002
  C      0.807   -0.463   0.561
  C      1.800   -1.079   2.676
  C      4.440   -1.719   -1.322
  C      4.716   -3.305   0.469
  C      5.516   -2.309   -1.970
  C      5.786   -3.855   -0.224
  C      2.921   -1.631   0.608
  C      4.040   -2.225   -0.090
  C      0.764   -0.484   1.955
  N      6.150   -3.348   -1.409
  O      -0.288   0.076   2.612
  H      1.904   -1.012   -1.199
  H      3.678   -2.112   2.578
  H      0.003   -0.001   -0.006
  H      1.772   -1.098   3.762
  H      3.931   -0.877   -1.782
  H      4.425   -3.721   1.429
  H      5.897   -1.982   -2.928
  H      6.368   -4.693   0.134
  H      6.938   -3.767   -1.902
  H      -0.220   1.044   2.593
  units Angstrom
}

dih_string = "3 11 13 23 285"
set optking fixed_dihedral = $dih_string

optimize('MP2/aug-cc-PVTZ')
--------------------------------------------------------------------------

    Molecular point group: c1
  Charge       = 1
  Multiplicity = 1
  Basis Set: AUG-CC-PVTZ
    Blend: AUG-CC-PVTZ
  Basis Set: (AUG-CC-PVTZ AUX)
    Blend: AUG-CC-PVTZ-JKFIT
  @DF-RHF Final Energy:  -551.67062188107400
    Total Energy =                       -551.6706218810739983
  Basis Set: (AUG-CC-PVTZ AUX)
    Blend: AUG-CC-PVTZ-RI
    Molecular point group: c1
  Basis Set: AUG-CC-PVTZ
    Blend: AUG-CC-PVTZ
  Basis Set: (AUG-CC-PVTZ AUX)
    Blend: AUG-CC-PVTZ-JKFIT
  Basis Set: (AUG-CC-PVTZ AUX)
    Blend: AUG-CC-PVTZ-JKFIT
	 Reference Energy          =    -551.6706218810739983 [Eh]
	 Singles Energy            =      -0.0000000000000002 [Eh]
	 Same-Spin Energy          =      -0.5961228448700175 [Eh]
	 Opposite-Spin Energy      =      -1.8246292222558709 [Eh]
	 Correlation Energy        =      -2.4207520671258882 [Eh]
	 Total Energy              =    -554.0913739481999301 [Eh]
	 SCS Total Energy          =    -554.0588845627377168 [Eh]
  @DF-RHF Final Energy:  -551.67537680595740
    Total Energy =                       -551.6753768059573986
  @DF-RHF Final Energy:  -551.67617527226730
    Total Energy =                       -551.6761752722673009
  @DF-RHF Final Energy:  -551.67614783537601
    Total Energy =                       -551.6761478353760140
  @DF-RHF Final Energy:  -551.67614579658004
    Total Energy =                       -551.6761457965800446
  @DF-RHF Final Energy:  -551.67615625023166
    Total Energy =                       -551.6761562502316565
  @DF-RHF Final Energy:  -551.67617015391033
    Total Energy =                       -551.6761701539103342
  @DF-RHF Final Energy:  -551.67615281314443
    Total Energy =                       -551.6761528131444265
  @DF-RHF Final Energy:  -551.67552697344831
    Total Energy =                       -551.6755269734483136
  @DF-RHF Final Energy:  -551.67585569887228
    Total Energy =                       -551.6758556988722830
  @DF-RHF Final Energy:  -551.67609647055929
    Total Energy =                       -551.6760964705592869
  @DF-RHF Final Energy:  -551.67614832383072
    Total Energy =                       -551.6761483238307164
  Charge       = 1
  Multiplicity = 1
  Basis Set: AUG-CC-PVTZ
    Blend: AUG-CC-PVTZ
  Basis Set: (AUG-CC-PVTZ AUX)
    Blend: AUG-CC-PVTZ-JKFIT

    Orbital Energies (a.u.)
    -----------------------

    Doubly Occupied:

       1A    -20.689794     2A    -15.830827     3A    -11.481908
       4A    -11.481751     5A    -11.451740     6A    -11.425579
       7A    -11.411996     8A    -11.411834     9A    -11.378374
      10A    -11.376692    11A    -11.375937    12A    -11.354074
      13A    -11.351972    14A     -1.510258    15A     -1.509424
      16A     -1.320368    17A     -1.266967    18A     -1.240011
      19A     -1.157142    20A     -1.154759    21A     -1.064808
      22A     -1.058400    23A     -0.971901    24A     -0.963983
      25A     -0.953665    26A     -0.868006    27A     -0.862529
      28A     -0.854859    29A     -0.819130    30A     -0.802529
      31A     -0.780776    32A     -0.770790    33A     -0.758513
      34A     -0.749568    35A     -0.725819    36A     -0.708959
      37A     -0.703392    38A     -0.661285    39A     -0.649908
      40A     -0.644701    41A     -0.594305    42A     -0.575315
      43A     -0.540827    44A     -0.471184    45A     -0.448906

  @DF-RHF Final Energy:  -551.67616336748597

   => Energetics <=

    Nuclear Repulsion Energy =            712.9827743173158296
    One-Electron Energy =               -2148.9469510410708608
    Two-Electron Energy =                 884.2880133562689480
    DFT Exchange-Correlation Energy =       0.0000000000000000
    Empirical Dispersion Energy =           0.0000000000000000
    PCM Polarization Energy =               0.0000000000000000
    EFP Energy =                            0.0000000000000000
    Total Energy =                       -551.6761633674859695
  Basis Set: (AUG-CC-PVTZ AUX)
    Blend: AUG-CC-PVTZ-RI
    Molecular point group: c1
  Basis Set: AUG-CC-PVTZ
    Blend: AUG-CC-PVTZ
  Basis Set: (AUG-CC-PVTZ AUX)
    Blend: AUG-CC-PVTZ-JKFIT
  Basis Set: (AUG-CC-PVTZ AUX)
    Blend: AUG-CC-PVTZ-JKFIT
	 Reference Energy          =    -551.6761633674859695 [Eh]
	 Singles Energy            =      -0.0000000000000001 [Eh]
	 Same-Spin Energy          =      -0.5954246305744593 [Eh]
	 Opposite-Spin Energy      =      -1.8230453140302865 [Eh]
	 Correlation Energy        =      -2.4184699446047455 [Eh]
	 Total Energy              =    -554.0946333120907639 [Eh]

	 ================> DF-SCS-MP2 Energies <==================
	-----------------------------------------------------------
	 SCS Same-Spin Scale       =       0.3333333333333333 [-]
	 SCS Opposite-Spin Scale   =       1.2000000000000000 [-]
	 SCS Same-Spin Energy      =      -0.1984748768581531 [Eh]
	 SCS Opposite-Spin Energy  =      -2.1876543768363437 [Eh]
	 SCS Correlation Energy    =      -2.3861292536944969 [Eh]
	 SCS Total Energy          =    -554.0622926211805179 [Eh]
	-----------------------------------------------------------

  -Total Gradient:
     Atom            X                  Y                   Z
    ------   -----------------  -----------------  -----------------
       1        0.000026909190    -0.000008954786     0.000032364460
       2       -0.000031642492     0.000028251710    -0.000016183564
       3       -0.000925629241    -0.002041103183    -0.000082849407
       4       -0.000013318350    -0.000069576981    -0.000015196760
       5       -0.000009205015    -0.000019925107     0.000029963612
       6        0.000005041155     0.000023213568    -0.000003032701
       7       -0.000034473779     0.000022748838     0.000021247176
       8       -0.000044950339     0.000002381822     0.000016308353
       9        0.000022293156    -0.000024187783    -0.000040305664
      10       -0.000023267426     0.000004700353    -0.000024940656
      11        0.001771117767     0.003251609535     0.000741129187
      12        0.000015762018     0.000003231148    -0.000001763884
      13       -0.002320813572    -0.001106766113    -0.003080850520
      14       -0.000028822884     0.000026619944    -0.000004285340
      15       -0.000022031362     0.000013910920     0.000040216802
      16        0.000022334251    -0.000008804613    -0.000006819788
      17       -0.000000188464    -0.000012867233     0.000015145658
      18        0.000016025710     0.000007014655    -0.000027511763
      19        0.000023004828    -0.000023187180     0.000005188063
      20       -0.000003892937     0.000001388657    -0.000005348910
      21        0.000004444053    -0.000001185854     0.000006826542
      22        0.000005477883    -0.000002823066    -0.000003439879
      23        0.001545825831    -0.000065689255     0.002404138994

  **** Optimization is complete! (in 13 steps) ****
    Final optimized geometry and variables:
    Molecular point group: c1

    Geometry (in Angstrom), charge = 1, multiplicity = 1:

    C           -1.260724031885     0.767180354988    -0.559636971670
    C           -0.299709380903     0.102635267523     1.546711246977
    C           -2.330218238425     1.332352399919     0.107050915683
    C           -1.356571085315     0.690165919745     2.214026379384
    C            1.297705342102    -0.007180851022    -1.801609412651
    C            1.576349425722    -1.556910529284    -0.006617782061
    C            2.348956133461    -0.599688466065    -2.454745284374
    C            2.624962612174    -2.127081489585    -0.683472080655
    C           -0.232853960750     0.139792322366     0.150837293693
    C            0.876368104132    -0.471832980296    -0.549303068454
    C           -2.370394266838     1.316627960478     1.497987573406
    N            2.981221682836    -1.637019372698    -1.882116756520
    O           -3.453154114346     1.795363537372     2.173679841414
    H           -1.261381572571     0.763151743804    -1.639314070589
    H            0.496039813488    -0.346635574694     2.121626510806
    H           -3.147386492286     1.777774004091    -0.438722842955
    H           -1.411461464925     0.676900536691     3.291104087862
    H            0.822851960053     0.843099130057    -2.262647238751
    H            1.285404226016    -1.984101667790     0.938781082561
    H            2.715766768548    -0.273778526800    -3.413751098798
    H            3.187477777569    -2.967942282263    -0.313309942754
    H            3.755390674789    -2.066010101864    -2.372653453493
    H           -3.465806455349     2.757854849402     2.156856210921

*** Psi4 exiting successfully. Buy a developer a beer!
