                               Psi4 1.1 release

  ==> Input File <==

--------------------------------------------------------------------------

memory 5 Gb

molecule phepyrFOH_cation {
  symmetry C1
  1 1
  C      1.885   -1.036   -0.112
  C      0.807   -0.463   0.561
  C      4.830   -1.443   -0.930
  C      4.321   -3.578   0.063
  C      1.800   -1.079   2.676
  C      5.894   -2.040   -1.592
  C      5.398   -4.120   -0.624
  C      2.921   -1.631   0.608
  C      4.038   -2.225   -0.095
  C      0.764   -0.484   1.955
  C      2.878   -1.652   2.002
  N      6.144   -3.345   -1.422
  O      -0.289   0.076   2.612
  F      3.866   -2.220   2.709
  H      1.904   -1.012   -1.199
  H      0.002   -0.002   -0.006
  H      4.632   -0.385   -1.072
  H      3.719   -4.212   0.708
  H      1.772   -1.099   3.762
  H      6.561   -1.511   -2.259
  H      5.691   -5.159   -0.561
  H      6.930   -3.764   -1.918
  H      -0.027   0.924   3.005
  units Angstrom
}

dih_string = "2 10 13 23 255"
set optking fixed_dihedral = $dih_string

optimize('MP2/aug-cc-PVTZ')
--------------------------------------------------------------------------

    Molecular point group: c1
  Charge       = 1
  Multiplicity = 1
  Basis Set: AUG-CC-PVTZ
    Blend: AUG-CC-PVTZ
  Basis Set: (AUG-CC-PVTZ AUX)
    Blend: AUG-CC-PVTZ-JKFIT
  @DF-RHF Final Energy:  -650.55467374097009
    Total Energy =                       -650.5546737409699745
  Basis Set: (AUG-CC-PVTZ AUX)
    Blend: AUG-CC-PVTZ-RI
    Molecular point group: c1
  Basis Set: AUG-CC-PVTZ
    Blend: AUG-CC-PVTZ
  Basis Set: (AUG-CC-PVTZ AUX)
    Blend: AUG-CC-PVTZ-JKFIT
  Basis Set: (AUG-CC-PVTZ AUX)
    Blend: AUG-CC-PVTZ-JKFIT
	 Reference Energy          =    -650.5546737409700881 [Eh]
	 Singles Energy            =      -0.0000000000000001 [Eh]
	 Same-Spin Energy          =      -0.6686614417481506 [Eh]
	 Opposite-Spin Energy      =      -2.0132930151548796 [Eh]
	 Correlation Energy        =      -2.6819544569030302 [Eh]
	 Total Energy              =    -653.2366281978730740 [Eh]
	 SCS Total Energy          =    -653.1935125064053409 [Eh]
  @DF-RHF Final Energy:  -650.55948065548876
    Total Energy =                       -650.5594806554886418
  @DF-RHF Final Energy:  -650.56050532257007
    Total Energy =                       -650.5605053225701795
  @DF-RHF Final Energy:  -650.56082321974964
    Total Energy =                       -650.5608232197496363
  @DF-RHF Final Energy:  -650.56109768007570
    Total Energy =                       -650.5610976800755907
  @DF-RHF Final Energy:  -650.56144685922300
    Total Energy =                       -650.5614468592229969
  @DF-RHF Final Energy:  -650.56182042970715
    Total Energy =                       -650.5618204297072680
  @DF-RHF Final Energy:  -650.56215154113340
    Total Energy =                       -650.5621515411335167
  @DF-RHF Final Energy:  -650.56240609449276
    Total Energy =                       -650.5624060944928715
  @DF-RHF Final Energy:  -650.56258086706544
    Total Energy =                       -650.5625808670654351
  @DF-RHF Final Energy:  -650.56267040524494
    Total Energy =                       -650.5626704052449440
  @DF-RHF Final Energy:  -650.56267352904194
    Total Energy =                       -650.5626735290418310
  @DF-RHF Final Energy:  -650.56265176438819
    Total Energy =                       -650.5626517643881925
  @DF-RHF Final Energy:  -650.56269036961953
    Total Energy =                       -650.5626903696195313
  Charge       = 1
  Multiplicity = 1
  Basis Set: AUG-CC-PVTZ
    Blend: AUG-CC-PVTZ
  Basis Set: (AUG-CC-PVTZ AUX)
    Blend: AUG-CC-PVTZ-JKFIT

    Orbital Energies (a.u.)
    -----------------------

    Doubly Occupied:

       1A    -26.444926     2A    -20.696484     3A    -15.834365
       4A    -11.484051     5A    -11.482086     6A    -11.471212
       7A    -11.456672     8A    -11.437889     9A    -11.415820
      10A    -11.412494    11A    -11.387906    12A    -11.386711
      13A    -11.361011    14A    -11.356291    15A     -1.765041
      16A     -1.517762    17A     -1.512067    18A     -1.325794
      19A     -1.276582    20A     -1.241692    21A     -1.170328
      22A     -1.159623    23A     -1.068323    24A     -1.064887
      25A     -0.990510    26A     -0.974239    27A     -0.963085
      28A     -0.894839    29A     -0.873424    30A     -0.866400
      31A     -0.846430    32A     -0.833390    33A     -0.819272
      34A     -0.811162    35A     -0.794721    36A     -0.776377
      37A     -0.762804    38A     -0.754363    39A     -0.743160
      40A     -0.720333    41A     -0.707200    42A     -0.675867
      43A     -0.659407    44A     -0.644798    45A     -0.607191
      46A     -0.581947    47A     -0.540863    48A     -0.476798
      49A     -0.458932

  @DF-RHF Final Energy:  -650.56269991328156

   => Energetics <=

    Nuclear Repulsion Energy =            830.6982616223890545
    One-Electron Energy =               -2521.5068634504773399
    Two-Electron Energy =                1040.2459019148068364
    DFT Exchange-Correlation Energy =       0.0000000000000000
    Empirical Dispersion Energy =           0.0000000000000000
    PCM Polarization Energy =               0.0000000000000000
    EFP Energy =                            0.0000000000000000
    Total Energy =                       -650.5626999132814490
  Basis Set: (AUG-CC-PVTZ AUX)
    Blend: AUG-CC-PVTZ-RI
    Molecular point group: c1
  Basis Set: AUG-CC-PVTZ
    Blend: AUG-CC-PVTZ
  Basis Set: (AUG-CC-PVTZ AUX)
    Blend: AUG-CC-PVTZ-JKFIT
  Basis Set: (AUG-CC-PVTZ AUX)
    Blend: AUG-CC-PVTZ-JKFIT
	 Reference Energy          =    -650.5626999132815627 [Eh]
	 Singles Energy            =      -0.0000000000000004 [Eh]
	 Same-Spin Energy          =      -0.6684953297107231 [Eh]
	 Opposite-Spin Energy      =      -2.0120439258194289 [Eh]
	 Correlation Energy        =      -2.6805392555301526 [Eh]
	 Total Energy              =    -653.2432391688116695 [Eh]

	 ================> DF-SCS-MP2 Energies <==================
	-----------------------------------------------------------
	 SCS Same-Spin Scale       =       0.3333333333333333 [-]
	 SCS Opposite-Spin Scale   =       1.2000000000000000 [-]
	 SCS Same-Spin Energy      =      -0.2228317765702410 [Eh]
	 SCS Opposite-Spin Energy  =      -2.4144527109833147 [Eh]
	 SCS Correlation Energy    =      -2.6372844875535564 [Eh]
	 SCS Total Energy          =    -653.1999844008350919 [Eh]
	-----------------------------------------------------------

  -Total Gradient:
     Atom            X                  Y                   Z
    ------   -----------------  -----------------  -----------------
       1        0.000020281045    -0.000039544794     0.000011491942
       2        0.000814649109     0.001274040320     0.000366181084
       3       -0.000028701597    -0.000030431694     0.000027641834
       4       -0.000045596402     0.000018878559     0.000007284183
       5       -0.000003026489    -0.000001280497    -0.000011581521
       6        0.000003147150    -0.000026291343     0.000010226309
       7        0.000005557041     0.000013951067    -0.000016624952
       8       -0.000045598136     0.000056333258     0.000013162033
       9        0.000085233616     0.000019955832    -0.000018389054
      10       -0.001280087735    -0.001620892442    -0.000931325976
      11        0.000012798856    -0.000013408875    -0.000018930301
      12       -0.000020531847     0.000018962355     0.000011295393
      13        0.000793364437    -0.000947559416     0.002228547407
      14       -0.000009770419     0.000007794673    -0.000016440996
      15       -0.000007215752     0.000004327766     0.000003347852
      16        0.000006920444    -0.000002113480     0.000010669024
      17        0.000004557945    -0.000007149083    -0.000000085447
      18        0.000009943059    -0.000008985599    -0.000014018852
      19       -0.000007598800     0.000007019892    -0.000011564251
      20       -0.000003271686    -0.000010577621     0.000008613794
      21        0.000000945899     0.000015308262    -0.000005411158
      22        0.000002292904    -0.000000184658     0.000000348381
      23       -0.000308292643     0.001271847512    -0.001654436724

  **** Optimization is complete! (in 15 steps) ****
    Final optimized geometry and variables:
    Molecular point group: c1

    Geometry (in Angstrom), charge = 1, multiplicity = 1:

    C           -1.154226474482     1.039573197855    -0.720270393866
    C           -2.225978496785     1.619678254822    -0.074383043025
    C            1.473308322588     0.257887208216    -1.804129930997
    C            1.347643872130    -1.674504470291    -0.403077818519
    C           -1.553031707500     0.564319977898     1.983178205733
    C            2.516236805069    -0.319966661427    -2.484134397621
    C            2.391569854435    -2.225109815489    -1.105292925167
    C           -0.259586410518     0.202613056922    -0.042946930056
    C            0.854941685339    -0.407230597020    -0.738815382597
    C           -2.425521902518     1.385922765483     1.282215447865
    C           -0.497553759085    -0.009592016565     1.314115840641
    N            2.944246317736    -1.538332479001    -2.117517156593
    O           -3.520622713887     1.913050002800     1.898271211586
    F            0.355683907038    -0.776224238498     2.014860293073
    H           -1.029394177009     1.201655559154    -1.780234383576
    H           -2.926189147966     2.242347977717    -0.607216375172
    H            1.160021635519     1.248452386727    -2.090167706309
    H            0.906843906645    -2.246639482698     0.394225884294
    H           -1.696435537450     0.370602022012     3.033877960045
    H            3.031924014767     0.154077629440    -3.302397309799
    H            2.800989758025    -3.199052981592    -0.895364584396
    H            3.716159812275    -1.954738102898    -2.622820579061
    H           -3.272468074033     2.665762032136     2.444979949167

*** Psi4 exiting successfully. Buy a developer a beer!
