                              Psi4 1.0.0 Driver

  ==> Input File <==

--------------------------------------------------------------------------

memory 1000 mb

molecule butane {
  symmetry C1
  0 1
  H      1.604   0.760   -8.260
  H      1.745   2.388   -8.880
  H      2.043   1.024   -9.930
  C      2.142   1.395   -8.932
  H      4.169   2.051   -9.210
  H      3.731   1.788   -7.539
  C      3.631   1.416   -8.537
  H      3.808   -0.509   -9.473
  H      5.269   0.034   -8.685
  C      4.203   -0.012   -8.612
  H      4.207   -1.783   -7.396
  H      2.743   -0.837   -7.270
  H      4.204   -0.294   -6.482
  C      3.809   -0.791   -7.344
  units Angstrom
}

dih_string = "4 7 10 14 280"
set optking fixed_dihedral = $dih_string

optimize('B3LYP/cc-PVDZ')
--------------------------------------------------------------------------

    Molecular point group: c1
  Charge       = 0
  Multiplicity = 1
  Basis Set: CC-PVDZ
   => B3LYP Composite Functional <=
  Basis Set:
  @DF-RKS Final Energy:  -158.44702583806321
    Total Energy =                       -158.4470258380632117
    Molecular point group: c1
  Basis Set: CC-PVDZ
  Basis Set:
   => B3LYP Composite Functional <=
  Basis Set: CC-PVDZ
   => B3LYP Composite Functional <=
  Basis Set:
  @DF-RKS Final Energy:  -158.45293685496986
    Total Energy =                       -158.4529368549698631
  Basis Set: CC-PVDZ
  Basis Set:
   => B3LYP Composite Functional <=
  Basis Set: CC-PVDZ
   => B3LYP Composite Functional <=
  Basis Set:
  @DF-RKS Final Energy:  -158.45574206679623
    Total Energy =                       -158.4557420667962333
  Basis Set: CC-PVDZ
  Basis Set:
  @DF-RKS Final Energy:  -158.45663622001490
    Total Energy =                       -158.4566362200149001
   => B3LYP Composite Functional <=
  Basis Set:
  @DF-RKS Final Energy:  -158.45685720131800
    Total Energy =                       -158.4568572013180017
  Basis Set: CC-PVDZ
  Basis Set:
   => B3LYP Composite Functional <=
  Basis Set: CC-PVDZ
   => B3LYP Composite Functional <=
  Basis Set:
  @DF-RKS Final Energy:  -158.45687162868708
    Total Energy =                       -158.4568716286870824
  Basis Set: CC-PVDZ
  Basis Set:
   => B3LYP Composite Functional <=
  Charge       = 0
  Multiplicity = 1
  Basis Set: CC-PVDZ
   => B3LYP Composite Functional <=
  Basis Set:

    Orbital Energies (a.u.)
    -----------------------

    Doubly Occupied:

       1A    -10.180348     2A    -10.180177     3A    -10.175661
       4A    -10.175659     5A     -0.790016     6A     -0.717480
       7A     -0.634424     8A     -0.565290     9A     -0.451312
      10A     -0.448246    11A     -0.414737    12A     -0.381710
      13A     -0.375639    14A     -0.358113    15A     -0.325232
      16A     -0.320435    17A     -0.316587

  @DF-RKS Final Energy:  -158.45687210087149

   => Energetics <=

    Nuclear Repulsion Energy =            131.2778552352005761
    One-Electron Energy =                -471.0493848154922034
    Two-Electron Energy =                 201.8979653525511821
    DFT Exchange-Correlation Energy =     -20.5833078731310692
    Empirical Dispersion Energy =           0.0000000000000000
    PCM Polarization Energy =               0.0000000000000000
    EFP Energy =                            0.0000000000000000
    Total Energy =                       -158.4568721008714931
    Molecular point group: c1
  Basis Set: CC-PVDZ
  Basis Set:
   => B3LYP Composite Functional <=

  -Total Gradient:
     Atom            X                  Y                   Z
    ------   -----------------  -----------------  -----------------
       1        0.000006134758     0.000002189067     0.000000046474
       2       -0.000004244383     0.000002507821    -0.000002458058
       3       -0.000006096691     0.000002640633    -0.000001560358
       4        0.000506249479     0.000156796688    -0.001684079239
       5       -0.000005831289    -0.000005525605     0.000011658164
       6       -0.000002331370     0.000003424342     0.000004534907
       7       -0.000118287571     0.000060291709     0.002671308069
       8       -0.000001983467    -0.000005146032    -0.000002650733
       9       -0.000013832979    -0.000002672847    -0.000002488147
      10       -0.001791358217    -0.000871629423    -0.001784996797
      11        0.000001371130    -0.000003799333     0.000003701150
      12        0.000004117520     0.000002121175    -0.000005026539
      13       -0.000000048248    -0.000005400881     0.000003993343
      14        0.001434652865     0.000667817799     0.000784065793

  **** Optimization is complete! (in 7 steps) ****
    Final optimized geometry and variables:
    Molecular point group: c1

    Geometry (in Angstrom), charge = 0, multiplicity = 1:

    H           -1.943136238997     0.329022096499     0.023656291597
    H           -1.715284709053     1.950927682144    -0.663904431843
    H           -1.439671663379     0.510264879131    -1.672495259306
    C           -1.312474266293     0.924834052521    -0.657784687440
    H            0.735144085066     1.527119531276    -0.947573182901
    H            0.279714140072     1.383739884599     0.750472633492
    C            0.161136494739     0.904033179931    -0.238708013631
    H            0.463797091666    -1.067950656414    -1.095702081222
    H            1.877675491651    -0.417380953992    -0.265615882693
    C            0.778616279281    -0.504894610169    -0.197640681535
    H            0.886619610448    -2.302884492239     1.048675401086
    H           -0.656276183412    -1.433067701035     1.183304556758
    H            0.800162948708    -0.781877785974     1.969431547526
    C            0.432456577587    -1.298601675574     1.066397232093

*** Psi4 exiting successfully. Buy a developer a beer!
