                               Psi4 1.1 release

  ==> Input File <==

--------------------------------------------------------------------------

memory 5 Gb

molecule phepyrOH_cation {
  symmetry C1
  1 1
  C      1.885   -1.036   -0.112
  C      2.878   -1.652   2.002
  C      0.807   -0.463   0.561
  C      1.800   -1.079   2.676
  C      3.827   -3.271   -0.983
  C      5.330   -1.753   0.130
  C      4.919   -3.822   -1.638
  C      6.384   -2.342   -0.553
  C      2.921   -1.631   0.608
  C      4.040   -2.225   -0.090
  C      0.764   -0.484   1.955
  N      6.151   -3.348   -1.408
  O      -0.288   0.076   2.612
  H      1.904   -1.012   -1.199
  H      3.678   -2.112   2.578
  H      0.003   -0.001   -0.006
  H      1.772   -1.098   3.762
  H      2.831   -3.660   -1.175
  H      5.525   -0.938   0.822
  H      4.849   -4.635   -2.348
  H      7.416   -2.041   -0.445
  H      6.939   -3.768   -1.899
  H      -0.175   -0.018   3.571
  units Angstrom
}

dih_string = "1 9 10 5 300"
set optking fixed_dihedral = $dih_string

optimize('MP2/aug-cc-PVTZ')
--------------------------------------------------------------------------

    Molecular point group: c1
  Charge       = 1
  Multiplicity = 1
  Basis Set: AUG-CC-PVTZ
    Blend: AUG-CC-PVTZ
  Basis Set: (AUG-CC-PVTZ AUX)
    Blend: AUG-CC-PVTZ-JKFIT
  @DF-RHF Final Energy:  -551.67307776646908
    Total Energy =                       -551.6730777664690777
  Basis Set: (AUG-CC-PVTZ AUX)
    Blend: AUG-CC-PVTZ-RI
    Molecular point group: c1
  Basis Set: AUG-CC-PVTZ
    Blend: AUG-CC-PVTZ
  Basis Set: (AUG-CC-PVTZ AUX)
    Blend: AUG-CC-PVTZ-JKFIT
  Basis Set: (AUG-CC-PVTZ AUX)
    Blend: AUG-CC-PVTZ-JKFIT
	 Reference Energy          =    -551.6730777664690777 [Eh]
	 Singles Energy            =      -0.0000000000000002 [Eh]
	 Same-Spin Energy          =      -0.5961404536105126 [Eh]
	 Opposite-Spin Energy      =      -1.8247614732870514 [Eh]
	 Correlation Energy        =      -2.4209019268975638 [Eh]
	 Total Energy              =    -554.0939796933666912 [Eh]
	 SCS Total Energy          =    -554.0615050189503563 [Eh]
  @DF-RHF Final Energy:  -551.67751983389098
    Total Energy =                       -551.6775198338909831
  @DF-RHF Final Energy:  -551.67848202904281
    Total Energy =                       -551.6784820290428115
  @DF-RHF Final Energy:  -551.67862693190875
    Total Energy =                       -551.6786269319087523
  @DF-RHF Final Energy:  -551.67865425483365
    Total Energy =                       -551.6786542548336456
  @DF-RHF Final Energy:  -551.67867292320921
    Total Energy =                       -551.6786729232092057
  @DF-RHF Final Energy:  -551.67866323064652
    Total Energy =                       -551.6786632306465208
  @DF-RHF Final Energy:  -551.67864181109360
    Total Energy =                       -551.6786418110935983
  @DF-RHF Final Energy:  -551.67872295659322
    Total Energy =                       -551.6787229565932194
  @DF-RHF Final Energy:  -551.67857351038629
    Total Energy =                       -551.6785735103862862
  @DF-RHF Final Energy:  -551.67868097607834
    Total Energy =                       -551.6786809760783399
  @DF-RHF Final Energy:  -551.67861592720851
    Total Energy =                       -551.6786159272085115
  @DF-RHF Final Energy:  -551.67865799553783
    Total Energy =                       -551.6786579955378329
  @DF-RHF Final Energy:  -551.67848721033567
    Total Energy =                       -551.6784872103356747
  @DF-RHF Final Energy:  -551.67867259252921
    Total Energy =                       -551.6786725925292103
  Charge       = 1
  Multiplicity = 1
  Basis Set: AUG-CC-PVTZ
    Blend: AUG-CC-PVTZ
  Basis Set: (AUG-CC-PVTZ AUX)
    Blend: AUG-CC-PVTZ-JKFIT

    Orbital Energies (a.u.)
    -----------------------

    Doubly Occupied:

       1A    -20.700595     2A    -15.836149     3A    -11.484574
       4A    -11.484182     5A    -11.449599     6A    -11.425873
       7A    -11.413913     8A    -11.413873     9A    -11.373406
      10A    -11.370704    11A    -11.368552    12A    -11.351450
      13A    -11.344551    14A     -1.523225    15A     -1.512997
      16A     -1.318232    17A     -1.264986    18A     -1.242168
      19A     -1.154405    20A     -1.149974    21A     -1.066007
      22A     -1.057750    23A     -0.975643    24A     -0.965553
      25A     -0.949816    26A     -0.872222    27A     -0.860547
      28A     -0.854398    29A     -0.820182    30A     -0.803049
      31A     -0.788339    32A     -0.774394    33A     -0.753220
      34A     -0.730594    35A     -0.718564    36A     -0.707749
      37A     -0.704427    38A     -0.686357    39A     -0.654958
      40A     -0.624046    41A     -0.613845    42A     -0.571933
      43A     -0.541426    44A     -0.468818    45A     -0.435290

  @DF-RHF Final Energy:  -551.67856749078328

   => Energetics <=

    Nuclear Repulsion Energy =            713.3561616663390623
    One-Electron Energy =               -2149.7043938505203187
    Two-Electron Energy =                 884.6696646933978627
    DFT Exchange-Correlation Energy =       0.0000000000000000
    Empirical Dispersion Energy =           0.0000000000000000
    PCM Polarization Energy =               0.0000000000000000
    EFP Energy =                            0.0000000000000000
    Total Energy =                       -551.6785674907832799
  Basis Set: (AUG-CC-PVTZ AUX)
    Blend: AUG-CC-PVTZ-RI
    Molecular point group: c1
  Basis Set: AUG-CC-PVTZ
    Blend: AUG-CC-PVTZ
  Basis Set: (AUG-CC-PVTZ AUX)
    Blend: AUG-CC-PVTZ-JKFIT
  Basis Set: (AUG-CC-PVTZ AUX)
    Blend: AUG-CC-PVTZ-JKFIT
	 Reference Energy          =    -551.6785674907832799 [Eh]
	 Singles Energy            =      -0.0000000000000006 [Eh]
	 Same-Spin Energy          =      -0.5957577733680860 [Eh]
	 Opposite-Spin Energy      =      -1.8232766295047633 [Eh]
	 Correlation Energy        =      -2.4190344028728497 [Eh]
	 Total Energy              =    -554.0976018936561331 [Eh]

	 ================> DF-SCS-MP2 Energies <==================
	-----------------------------------------------------------
	 SCS Same-Spin Scale       =       0.3333333333333333 [-]
	 SCS Opposite-Spin Scale   =       1.2000000000000000 [-]
	 SCS Same-Spin Energy      =      -0.1985859244560287 [Eh]
	 SCS Opposite-Spin Energy  =      -2.1879319554057157 [Eh]
	 SCS Correlation Energy    =      -2.3865178798617448 [Eh]
	 SCS Total Energy          =    -554.0650853706450789 [Eh]
	-----------------------------------------------------------

  -Total Gradient:
     Atom            X                  Y                   Z
    ------   -----------------  -----------------  -----------------
       1        0.002816263821     0.005500972682     0.000259980227
       2       -0.000088994766    -0.000179229606     0.000005302089
       3       -0.000027808211    -0.000075019609    -0.000049164087
       4        0.000016820255     0.000028082102    -0.000003032129
       5        0.000874659664    -0.004258417262     0.004510573327
       6       -0.000013414649     0.000035991595    -0.000039454844
       7       -0.000024391851     0.000029989590    -0.000031708103
       8       -0.000014629792     0.000047407570    -0.000043396815
       9       -0.003479869998    -0.009944670398     0.001699155537
      10       -0.000104226769     0.008820196037    -0.006484969121
      11       -0.000036626705    -0.000020779677     0.000023331981
      12        0.000012986290    -0.000023085054     0.000025282224
      13        0.000010664564     0.000010289884    -0.000028842254
      14        0.000008882036     0.000048729529    -0.000040061263
      15        0.000065688563     0.000048321835     0.000025358978
      16       -0.000016682045     0.000008049344    -0.000016010337
      17       -0.000005401932    -0.000011703950     0.000037933090
      18       -0.000050381986    -0.000063768214     0.000022645864
      19        0.000022082325     0.000003148252     0.000092973257
      20       -0.000012529996    -0.000011487952    -0.000020752748
      21        0.000019818320     0.000019068905     0.000011405628
      22        0.000023119028    -0.000016138345    -0.000010805752
      23        0.000003973823     0.000004052754     0.000054255261

  **** Optimization is complete! (in 16 steps) ****
    Final optimized geometry and variables:
    Molecular point group: c1

    Geometry (in Angstrom), charge = 1, multiplicity = 1:

    C           -1.343180050229     0.653550448572    -0.558173384466
    C           -0.252503325453     0.148624932446     1.529516668809
    C           -2.382993434670     1.249330385716     0.125542876102
    C           -1.306074964177     0.721512053231     2.217075344294
    C            0.693867488034    -1.489468806230    -1.523437001838
    C            2.160620294673    -0.048310660345    -0.301070546342
    C            1.782747807901    -2.026980662757    -2.166362643593
    C            3.230309745218    -0.609139800088    -0.956457364304
    C           -0.277911009052     0.076751083059     0.137023547737
    C            0.856815253291    -0.463011180056    -0.588280618907
    C           -2.374765249957     1.276326671057     1.517546108220
    N            3.010182882288    -1.571778357600    -1.866325597543
    O           -3.428537055397     1.860403978072     2.118303269680
    H           -1.349983818817     0.648829537762    -1.638652244705
    H            0.572999065804    -0.278112706802     2.080830846947
    H           -3.206562017015     1.707596324535    -0.398889653106
    H           -1.297716524401     0.741053510044     3.297296806899
    H           -0.289645546390    -1.871719425794    -1.745679605777
    H            2.337226249224     0.730938380844     0.422878401935
    H            1.720648483981    -2.817974718515    -2.895040366192
    H            4.254784725190    -0.319657197998    -0.791415587823
    H            3.805910561055    -1.977155850480    -2.342990892437
    H           -3.328696544604     1.831273066104     3.076122616234

*** Psi4 exiting successfully. Buy a developer a beer!
