                               Psi4 1.1 release

  ==> Input File <==

--------------------------------------------------------------------------

memory 5 Gb

molecule phepyrOH_cation {
  symmetry C1
  1 1
  C      1.885   -1.036   -0.112
  C      2.878   -1.652   2.002
  C      0.807   -0.463   0.561
  C      1.800   -1.079   2.676
  C      4.440   -1.719   -1.322
  C      4.716   -3.305   0.469
  C      5.516   -2.309   -1.970
  C      5.786   -3.855   -0.224
  C      2.921   -1.631   0.608
  C      4.040   -2.225   -0.090
  C      0.764   -0.484   1.955
  N      6.150   -3.348   -1.409
  O      -0.288   0.076   2.612
  H      1.904   -1.012   -1.199
  H      3.678   -2.112   2.578
  H      0.003   -0.001   -0.006
  H      1.772   -1.098   3.762
  H      3.931   -0.877   -1.782
  H      4.425   -3.721   1.429
  H      5.897   -1.982   -2.928
  H      6.368   -4.693   0.134
  H      6.938   -3.767   -1.902
  H      -1.024   0.232   1.998
  units Angstrom
}

dih_string = "3 11 13 23 15"
set optking fixed_dihedral = $dih_string

optimize('MP2/aug-cc-PVTZ')
--------------------------------------------------------------------------

    Molecular point group: c1
  Charge       = 1
  Multiplicity = 1
  Basis Set: AUG-CC-PVTZ
    Blend: AUG-CC-PVTZ
  Basis Set: (AUG-CC-PVTZ AUX)
    Blend: AUG-CC-PVTZ-JKFIT
  @DF-RHF Final Energy:  -551.67559708844067
    Total Energy =                       -551.6755970884406679
  Basis Set: (AUG-CC-PVTZ AUX)
    Blend: AUG-CC-PVTZ-RI
    Molecular point group: c1
  Basis Set: AUG-CC-PVTZ
    Blend: AUG-CC-PVTZ
  Basis Set: (AUG-CC-PVTZ AUX)
    Blend: AUG-CC-PVTZ-JKFIT
  Basis Set: (AUG-CC-PVTZ AUX)
    Blend: AUG-CC-PVTZ-JKFIT
	 Reference Energy          =    -551.6755970884406679 [Eh]
	 Singles Energy            =      -0.0000000000000001 [Eh]
	 Same-Spin Energy          =      -0.5966555763497192 [Eh]
	 Opposite-Spin Energy      =      -1.8255527070912194 [Eh]
	 Correlation Energy        =      -2.4222082834409386 [Eh]
	 Total Energy              =    -554.0978053718815772 [Eh]
	 SCS Total Energy          =    -554.0651455290667400 [Eh]
  @DF-RHF Final Energy:  -551.68114038788542
    Total Energy =                       -551.6811403878854208
  @DF-RHF Final Energy:  -551.68246145713192
    Total Energy =                       -551.6824614571319216
  @DF-RHF Final Energy:  -551.68248773262553
    Total Energy =                       -551.6824877326255319
  @DF-RHF Final Energy:  -551.68250308137317
    Total Energy =                       -551.6825030813731701
  @DF-RHF Final Energy:  -551.68251157552652
    Total Energy =                       -551.6825115755265188
  Charge       = 1
  Multiplicity = 1
  Basis Set: AUG-CC-PVTZ
    Blend: AUG-CC-PVTZ
  Basis Set: (AUG-CC-PVTZ AUX)
    Blend: AUG-CC-PVTZ-JKFIT

    Orbital Energies (a.u.)
    -----------------------

    Doubly Occupied:

       1A    -20.708685     2A    -15.825950     3A    -11.478273
       4A    -11.478182     5A    -11.449200     6A    -11.436099
       7A    -11.408304     8A    -11.408000     9A    -11.380804
      10A    -11.377327    11A    -11.373011    12A    -11.356086
      13A    -11.349538    14A     -1.531758    15A     -1.505179
      16A     -1.318335    17A     -1.266635    18A     -1.236361
      19A     -1.157514    20A     -1.156883    21A     -1.061420
      22A     -1.057618    23A     -0.979708    24A     -0.960890
      25A     -0.954450    26A     -0.873388    27A     -0.861736
      28A     -0.855425    29A     -0.819776    30A     -0.799544
      31A     -0.783038    32A     -0.770330    33A     -0.758811
      34A     -0.733682    35A     -0.723339    36A     -0.713199
      37A     -0.702181    38A     -0.685743    39A     -0.662797
      40A     -0.638168    41A     -0.619326    42A     -0.569220
      43A     -0.538213    44A     -0.474702    45A     -0.437090

  @DF-RHF Final Energy:  -551.68251960019347

   => Energetics <=

    Nuclear Repulsion Energy =            713.5564355748114167
    One-Electron Energy =               -2150.0060725273588105
    Two-Electron Energy =                 884.7671173523538073
    DFT Exchange-Correlation Energy =       0.0000000000000000
    Empirical Dispersion Energy =           0.0000000000000000
    PCM Polarization Energy =               0.0000000000000000
    EFP Energy =                            0.0000000000000000
    Total Energy =                       -551.6825196001934728
  Basis Set: (AUG-CC-PVTZ AUX)
    Blend: AUG-CC-PVTZ-RI
    Molecular point group: c1
  Basis Set: AUG-CC-PVTZ
    Blend: AUG-CC-PVTZ
  Basis Set: (AUG-CC-PVTZ AUX)
    Blend: AUG-CC-PVTZ-JKFIT
  Basis Set: (AUG-CC-PVTZ AUX)
    Blend: AUG-CC-PVTZ-JKFIT
	 Reference Energy          =    -551.6825196001934728 [Eh]
	 Singles Energy            =      -0.0000000000000002 [Eh]
	 Same-Spin Energy          =      -0.5957405006856293 [Eh]
	 Opposite-Spin Energy      =      -1.8234571761972314 [Eh]
	 Correlation Energy        =      -2.4191976768828605 [Eh]
	 Total Energy              =    -554.1017172770763182 [Eh]

	 ================> DF-SCS-MP2 Energies <==================
	-----------------------------------------------------------
	 SCS Same-Spin Scale       =       0.3333333333333333 [-]
	 SCS Opposite-Spin Scale   =       1.2000000000000000 [-]
	 SCS Same-Spin Energy      =      -0.1985801668952098 [Eh]
	 SCS Opposite-Spin Energy  =      -2.1881486114366777 [Eh]
	 SCS Correlation Energy    =      -2.3867287783318876 [Eh]
	 SCS Total Energy          =    -554.0692483785253444 [Eh]
	-----------------------------------------------------------

  -Total Gradient:
     Atom            X                  Y                   Z
    ------   -----------------  -----------------  -----------------
       1        0.000009241531     0.000037777270     0.000003099344
       2       -0.000043501475    -0.000027053291     0.000047638517
       3        0.000950302871     0.001556283222     0.000133827268
       4        0.000060567245    -0.000028162549    -0.000010897112
       5        0.000013482746     0.000006443699    -0.000015674480
       6        0.000018171049     0.000004042765     0.000008325118
       7       -0.000016957478    -0.000017071502     0.000005688640
       8        0.000007117532     0.000024109324     0.000002328243
       9        0.000001649323     0.000006358017    -0.000014957214
      10       -0.000021036427    -0.000025439866    -0.000012392155
      11       -0.001757780910    -0.002979485477    -0.000121366826
      12       -0.000003735903     0.000001243837     0.000002236589
      13        0.001759087679     0.003629327338    -0.000393890424
      14        0.000004874253    -0.000013728707    -0.000001500272
      15        0.000018316533     0.000001510049    -0.000012640041
      16       -0.000006166338     0.000002816540     0.000002327766
      17       -0.000022580190     0.000012330952     0.000003915930
      18       -0.000000208700     0.000013326623     0.000013091854
      19       -0.000019538524    -0.000001416277     0.000003896028
      20        0.000008309535    -0.000002591192    -0.000000499751
      21        0.000002395777    -0.000004434887    -0.000008411008
      22        0.000006419727    -0.000002670122    -0.000002719234
      23       -0.000968429864    -0.002193515760     0.000368573216

  **** Optimization is complete! (in 7 steps) ****
    Final optimized geometry and variables:
    Molecular point group: c1

    Geometry (in Angstrom), charge = 1, multiplicity = 1:

    C           -1.265873285485     0.764964233992    -0.563811178525
    C           -0.328019987320     0.076428423248     1.541262056241
    C           -2.340436984173     1.324388265358     0.096524736082
    C           -1.393083510030     0.643169650237     2.205404001356
    C            1.287802040590    -0.008817565351    -1.809243148956
    C            1.610404614465    -1.521564127938     0.008878468303
    C            2.354899998730    -0.580930748066    -2.452992579278
    C            2.674343331401    -2.071478482790    -0.659095495653
    C           -0.243000484817     0.127250683613     0.144658558161
    C            0.877289926237    -0.464004580472    -0.548186273169
    C           -2.413686452531     1.261556946350     1.486367594990
    N            3.018039974508    -1.591131498971    -1.865771376456
    O           -3.408080550639     1.816725005358     2.200017720172
    H           -1.250407132631     0.793801568358    -1.642707287070
    H            0.464477969296    -0.370277758692     2.122115653968
    H           -3.128826210878     1.803774920946    -0.465165128586
    H           -1.453821671460     0.625466692501     3.282105613983
    H            0.792190406183     0.820935814783    -2.285083150903
    H            1.333835358956    -1.943850748604     0.960578957891
    H            2.712107817529    -0.257997571794    -3.416609337639
    H            3.259864196320    -2.890215748874    -0.275248696742
    H            3.804434027316    -2.004687348590    -2.349367621199
    H           -4.150058218174     2.044654575106     1.628717456959

*** Psi4 exiting successfully. Buy a developer a beer!
