                              Psi4 1.0.0 Driver

  ==> Input File <==

--------------------------------------------------------------------------

memory 1000 mb

molecule butane {
  symmetry C1
  0 1
  H      1.604   0.760   -8.260
  H      1.745   2.388   -8.880
  H      2.043   1.024   -9.930
  C      2.142   1.395   -8.932
  H      4.169   2.051   -9.210
  H      3.731   1.788   -7.539
  C      3.631   1.416   -8.537
  H      3.929   -0.552   -7.731
  H      3.808   -0.510   -9.472
  C      4.203   -0.012   -8.612
  H      6.134   -0.938   -8.769
  H      6.133   0.552   -7.857
  H      6.013   0.594   -9.599
  C      5.737   0.054   -8.717
  units Angstrom
}

dih_string = "4 7 10 14 160"
set optking fixed_dihedral = $dih_string

optimize('MP2/6-31G(d)')
--------------------------------------------------------------------------

    Molecular point group: c1
  Charge       = 0
  Multiplicity = 1
  Basis Set: 6-31G(D)
  Basis Set:
  @DF-RHF Final Energy:  -157.29255622179375
    Total Energy =                       -157.2925562217939159
  Basis Set:
    Molecular point group: c1
  Basis Set: 6-31G(D)
  Basis Set:
  Basis Set:
	 Reference Energy          =    -157.2925562217937454 [Eh]
	 Singles Energy            =      -0.0000000000000000 [Eh]
	 Same-Spin Energy          =      -0.1243697764673533 [Eh]
	 Opposite-Spin Energy      =      -0.4201811811208419 [Eh]
	 Correlation Energy        =      -0.5445509575881953 [Eh]
	 Total Energy              =    -157.8371071793819453 [Eh]
	 SCS Total Energy          =    -157.8382302312945455 [Eh]
  Basis Set: 6-31G(D)
  Basis Set:
  @DF-RHF Final Energy:  -157.29545779535786
    Total Energy =                       -157.2954577953577768
  Basis Set:
  Basis Set: 6-31G(D)
  Basis Set:
  @DF-RHF Final Energy:  -157.29625402574950
    Total Energy =                       -157.2962540257495903
  @DF-RHF Final Energy:  -157.29651211545576
    Total Energy =                       -157.2965121154556982
  @DF-RHF Final Energy:  -157.29656833356194
    Total Energy =                       -157.2965683335618792
  @DF-RHF Final Energy:  -157.29658193837622
    Total Energy =                       -157.2965819383762778
  @DF-RHF Final Energy:  -157.29649191912225
    Total Energy =                       -157.2964919191218769
  @DF-RHF Final Energy:  -157.29655253499035
    Total Energy =                       -157.2965525349903260
	 Singles Energy            =      -0.0000000000000000 [Eh]
	 Same-Spin Energy          =      -0.1244153863459311 [Eh]
	 Opposite-Spin Energy      =      -0.4222541396367557 [Eh]
	 Correlation Energy        =      -0.5466695259826867 [Eh]
	 Total Energy              =    -157.8432220609730336 [Eh]
	 SCS Total Energy          =    -157.8447292980031023 [Eh]
  Charge       = 0
  Multiplicity = 1
  Basis Set: 6-31G(D)
  Basis Set:

    Orbital Energies (a.u.)
    -----------------------

    Doubly Occupied:

       1A    -11.215695     2A    -11.215101     3A    -11.210373
       4A    -11.210369     5A     -1.070029     6A     -0.979818
       7A     -0.859373     8A     -0.786407     9A     -0.636678
      10A     -0.583313    11A     -0.578757    12A     -0.563694
      13A     -0.513078    14A     -0.496367    15A     -0.467168
      16A     -0.459071    17A     -0.455732

  @DF-RHF Final Energy:  -157.29655644070723

   => Energetics <=

    Nuclear Repulsion Energy =            130.8069623677796187
    One-Electron Energy =                -469.6049951897376786
    Two-Electron Energy =                 181.5014763812508249
    DFT Exchange-Correlation Energy =       0.0000000000000000
    Empirical Dispersion Energy =           0.0000000000000000
    PCM Polarization Energy =               0.0000000000000000
    EFP Energy =                            0.0000000000000000
    Total Energy =                       -157.2965564407072065
  Basis Set:
    Molecular point group: c1
  Basis Set: 6-31G(D)
  Basis Set:
  Basis Set:
	 Reference Energy          =    -157.2965564407072350 [Eh]
	 Singles Energy            =      -0.0000000000000000 [Eh]
	 Same-Spin Energy          =      -0.1244186916250797 [Eh]
	 Opposite-Spin Energy      =      -0.4222507503892340 [Eh]
	 Correlation Energy        =      -0.5466694420143138 [Eh]
	 Total Energy              =    -157.8432258827215549 [Eh]

	 ================> DF-SCS-MP2 Energies <==================
	-----------------------------------------------------------
	 SCS Same-Spin Scale       =       0.3333333333333333 [-]
	 SCS Opposite-Spin Scale   =       1.2000000000000000 [-]
	 SCS Same-Spin Energy      =      -0.0414728972083599 [Eh]
	 SCS Opposite-Spin Energy  =      -0.5067009004670808 [Eh]
	 SCS Correlation Energy    =      -0.5481737976754407 [Eh]
	 SCS Total Energy          =    -157.8447302383826809 [Eh]
	-----------------------------------------------------------

  -Total Gradient:
     Atom            X                  Y                   Z
    ------   -----------------  -----------------  -----------------
       1       -0.000058607385    -0.000048709753     0.000044017475
       2       -0.000025749161     0.000073129258    -0.000007063091
       3       -0.000082369966    -0.000046839964    -0.000097877855
       4        0.001041176642     0.000410290343    -0.002487700606
       5        0.000016355651     0.000076031484     0.000087693521
       6        0.000091044498     0.000071600171     0.000037899952
       7       -0.001265272459    -0.000761827755     0.002377972344
       8       -0.000096194989    -0.000074773791     0.000011017724
       9       -0.000032167772    -0.000092156854     0.000062111983
      10        0.000795953606     0.000316899565     0.002664436150
      11        0.000029123993    -0.000075151367    -0.000014287578
      12        0.000047691288     0.000037705043     0.000062420091
      13        0.000092557933     0.000057503235    -0.000066423446
      14       -0.000553541879     0.000056300385    -0.002674216665

  **** Optimization is complete! (in 9 steps) ****
    Final optimized geometry and variables:
    Molecular point group: c1

    Geometry (in Angstrom), charge = 0, multiplicity = 1:

    H           -2.378270929766     0.022490610036     0.435643557956
    H           -2.237660015546     1.685218949807    -0.148572774792
    H           -1.938822558313     0.331580063250    -1.247769440982
    C           -1.804018462158     0.683729921854    -0.220913508295
    H            0.211660591387     1.350608440673    -0.529093862951
    H           -0.189345939630     1.104485600745     1.159387533644
    C           -0.327066246865     0.684127799814     0.156196656645
    H           -0.006525390195    -1.292710912864     0.963726350259
    H           -0.090329631832    -1.234003740153    -0.786122231308
    C            0.304239481981    -0.706062616789     0.091180791010
    H            2.254288945351    -1.669249698381    -0.031573531217
    H            2.259721615012    -0.136412048857     0.849411545726
    H            2.138171637165    -0.139986099774    -0.913477326621
    C            1.824922941583    -0.663644561613    -0.005598586637

*** Psi4 exiting successfully. Buy a developer a beer!
