                               Psi4 1.1 release

  ==> Input File <==

--------------------------------------------------------------------------

memory 5 Gb

molecule phepyrOH_neutral {
  symmetry C1
  0 1
  C      1.885   -1.036   -0.112
  C      2.878   -1.652   2.002
  C      0.807   -0.463   0.561
  C      1.800   -1.079   2.676
  C      3.891   -3.450   -0.732
  C      5.268   -1.574   -0.123
  C      4.992   -3.976   -1.388
  C      6.307   -2.184   -0.806
  C      2.921   -1.631   0.608
  C      4.040   -2.225   -0.090
  C      0.764   -0.484   1.955
  N      6.201   -3.372   -1.442
  O      -0.288   0.076   2.612
  H      1.904   -1.012   -1.199
  H      3.678   -2.112   2.578
  H      0.003   -0.001   -0.006
  H      1.772   -1.098   3.762
  H      2.948   -3.987   -0.730
  H      5.421   -0.618   0.367
  H      4.928   -4.927   -1.906
  H      7.285   -1.717   -0.860
  H      -0.175   -0.018   3.571
  units Angstrom
}

dih_string = "1 9 10 5 285"
set optking fixed_dihedral = $dih_string

optimize('MP2/aug-cc-PVTZ')
--------------------------------------------------------------------------

    Molecular point group: c1
  Charge       = 0
  Multiplicity = 1
  Basis Set: AUG-CC-PVTZ
    Blend: AUG-CC-PVTZ
  Basis Set: (AUG-CC-PVTZ AUX)
    Blend: AUG-CC-PVTZ-JKFIT
  @DF-RHF Final Energy:  -551.28474811759838
    Total Energy =                       -551.2847481175983830
  Basis Set: (AUG-CC-PVTZ AUX)
    Blend: AUG-CC-PVTZ-RI
    Molecular point group: c1
  Basis Set: AUG-CC-PVTZ
    Blend: AUG-CC-PVTZ
  Basis Set: (AUG-CC-PVTZ AUX)
    Blend: AUG-CC-PVTZ-JKFIT
  Basis Set: (AUG-CC-PVTZ AUX)
    Blend: AUG-CC-PVTZ-JKFIT
	 Reference Energy          =    -551.2847481175983830 [Eh]
	 Singles Energy            =      -0.0000000000000001 [Eh]
	 Same-Spin Energy          =      -0.6042067175206091 [Eh]
	 Opposite-Spin Energy      =      -1.8300263982065776 [Eh]
	 Correlation Energy        =      -2.4342331157271868 [Eh]
	 Total Energy              =    -553.7189812333256214 [Eh]
	 SCS Total Energy          =    -553.6821820346198137 [Eh]
  @DF-RHF Final Energy:  -551.29015802724018
    Total Energy =                       -551.2901580272401816
  @DF-RHF Final Energy:  -551.29117088222267
    Total Energy =                       -551.2911708822226728
  @DF-RHF Final Energy:  -551.29113401470113
    Total Energy =                       -551.2911340147011288
  @DF-RHF Final Energy:  -551.29108478168962
    Total Energy =                       -551.2910847816896194
  @DF-RHF Final Energy:  -551.29110822896882
    Total Energy =                       -551.2911082289688238
  Charge       = 0
  Multiplicity = 1
  Basis Set: AUG-CC-PVTZ
    Blend: AUG-CC-PVTZ
  Basis Set: (AUG-CC-PVTZ AUX)
    Blend: AUG-CC-PVTZ-JKFIT

    Orbital Energies (a.u.)
    -----------------------

    Doubly Occupied:

       1A    -20.599359     2A    -15.562392     3A    -11.310240
       4A    -11.271984     5A    -11.271938     6A    -11.263003
       7A    -11.250689     8A    -11.248681     9A    -11.244172
      10A    -11.242325    11A    -11.236347    12A    -11.236300
      13A    -11.235900    14A     -1.416516    15A     -1.258781
      16A     -1.173229    17A     -1.104619    18A     -1.035051
      19A     -1.032089    20A     -1.012384    21A     -0.879160
      22A     -0.863110    23A     -0.853185    24A     -0.811639
      25A     -0.745841    26A     -0.724973    27A     -0.679551
      28A     -0.666390    29A     -0.656547    30A     -0.637541
      31A     -0.615923    32A     -0.601695    33A     -0.601087
      34A     -0.596105    35A     -0.581457    36A     -0.540202
      37A     -0.529560    38A     -0.523394    39A     -0.504847
      40A     -0.490091    41A     -0.417238    42A     -0.381408
      43A     -0.356230    44A     -0.346189    45A     -0.321516

  @DF-RHF Final Energy:  -551.29110195467615

   => Energetics <=

    Nuclear Repulsion Energy =            697.0437542199878180
    One-Electron Energy =               -2130.8079525739681230
    Two-Electron Energy =                 882.4730963993040405
    DFT Exchange-Correlation Energy =       0.0000000000000000
    Empirical Dispersion Energy =           0.0000000000000000
    PCM Polarization Energy =               0.0000000000000000
    EFP Energy =                            0.0000000000000000
    Total Energy =                       -551.2911019546761509
  Basis Set: (AUG-CC-PVTZ AUX)
    Blend: AUG-CC-PVTZ-RI
    Molecular point group: c1
  Basis Set: AUG-CC-PVTZ
    Blend: AUG-CC-PVTZ
  Basis Set: (AUG-CC-PVTZ AUX)
    Blend: AUG-CC-PVTZ-JKFIT
  Basis Set: (AUG-CC-PVTZ AUX)
    Blend: AUG-CC-PVTZ-JKFIT
	 Reference Energy          =    -551.2911019546761509 [Eh]
	 Singles Energy            =      -0.0000000000000001 [Eh]
	 Same-Spin Energy          =      -0.6033526004138147 [Eh]
	 Opposite-Spin Energy      =      -1.8277301010594451 [Eh]
	 Correlation Energy        =      -2.4310827014732599 [Eh]
	 Total Energy              =    -553.7221846561494658 [Eh]

	 ================> DF-SCS-MP2 Energies <==================
	-----------------------------------------------------------
	 SCS Same-Spin Scale       =       0.3333333333333333 [-]
	 SCS Opposite-Spin Scale   =       1.2000000000000000 [-]
	 SCS Same-Spin Energy      =      -0.2011175334712715 [Eh]
	 SCS Opposite-Spin Energy  =      -2.1932761212713339 [Eh]
	 SCS Correlation Energy    =      -2.3943936547426055 [Eh]
	 SCS Total Energy          =    -553.6854956094188083 [Eh]
	-----------------------------------------------------------

  -Total Gradient:
     Atom            X                  Y                   Z
    ------   -----------------  -----------------  -----------------
       1        0.001073447001     0.002053405155     0.000074445571
       2        0.000001158458     0.000004711838    -0.000010226829
       3        0.000008945191    -0.000009035749    -0.000022495465
       4       -0.000012168641     0.000007889837     0.000002751841
       5        0.000647234399    -0.001153961340     0.001934096023
       6        0.000000574072     0.000003476277     0.000004126252
       7       -0.000010896133     0.000016457674    -0.000027964592
       8        0.000010015547    -0.000024244080     0.000021312765
       9       -0.001276070514    -0.003627524385     0.000856826644
      10       -0.000452301268     0.002722405485    -0.002850316344
      11        0.000006370291     0.000001057134     0.000006939123
      12        0.000000119149     0.000003804112     0.000006767706
      13        0.000003408276    -0.000004261300     0.000002037155
      14        0.000003272966    -0.000003382512     0.000000700535
      15        0.000001621211    -0.000002815981    -0.000002401064
      16       -0.000002632511     0.000003385522     0.000006187791
      17        0.000000175803     0.000000807702    -0.000001367504
      18        0.000004318350     0.000003913755     0.000002898877
      19        0.000000156113    -0.000000254554    -0.000006020654
      20       -0.000000484049    -0.000007166512     0.000009291478
      21       -0.000004692743     0.000010354263    -0.000007814792
      22       -0.000001570973     0.000000977656     0.000000225487

  **** Optimization is complete! (in 7 steps) ****
    Final optimized geometry and variables:
    Molecular point group: c1

    Geometry (in Angstrom), charge = 0, multiplicity = 1:

    C           -1.300443620072     0.694223366042    -0.561315568798
    C           -0.267756404797     0.115956670748     1.519590354436
    C           -2.359770899816     1.273094253511     0.116896962521
    C           -1.326837382233     0.691122981660     2.206053294601
    C            0.783304438133    -1.697358622968    -1.260206510123
    C            2.137692435183     0.133632914139    -0.594294571672
    C            1.894489568812    -2.221907267690    -1.902992092909
    C            3.193199991318    -0.467783688830    -1.262900428092
    C           -0.246121461388     0.100047847083     0.128777459957
    C            0.891917253498    -0.483156238979    -0.592233386138
    C           -2.375334832021     1.270260053852     1.504498020551
    N            3.090384363812    -1.628590927422    -1.914236123352
    O           -3.443976308552     1.852779989061     2.117382595836
    H           -1.288005777806     0.704407652451    -1.641162424082
    H            0.546159353700    -0.332743561692     2.069688891631
    H           -3.177174220549     1.736187600546    -0.413622218885
    H           -1.336471301458     0.687897415129     3.287384866359
    H           -0.157677634935    -2.226572704940    -1.275847681101
    H            2.277834987287     1.076075204430    -0.086354478944
    H            1.824443868113    -3.164799561591    -2.427136219960
    H            4.165971708002     0.003641367822    -1.278219135460
    H           -3.332190566577     1.786424103162     3.070409478224

*** Psi4 exiting successfully. Buy a developer a beer!
