                               Psi4 1.1 release

  ==> Input File <==

--------------------------------------------------------------------------

memory 1000 mb

molecule butane {
  symmetry C1
  0 1
  H      1.604   0.760   -8.260
  H      1.745   2.388   -8.880
  H      2.043   1.024   -9.930
  C      2.142   1.395   -8.932
  H      4.169   2.051   -9.210
  H      3.731   1.788   -7.539
  C      3.631   1.416   -8.537
  H      3.665   -0.647   -7.940
  H      4.104   -0.384   -9.610
  C      4.203   -0.012   -8.612
  H      6.281   -0.353   -9.033
  H      5.843   -0.616   -7.363
  H      5.985   1.011   -7.983
  C      5.691   0.009   -8.218
  units Angstrom
}

dih_string = "7 10 14 13 0.001"
set optking fixed_dihedral = $dih_string

optimize('MP2/aug-cc-pvtz')
--------------------------------------------------------------------------

    Molecular point group: c1
  Charge       = 0
  Multiplicity = 1
  Basis Set: AUG-CC-PVTZ
    Blend: AUG-CC-PVTZ
  Basis Set: (AUG-CC-PVTZ AUX)
    Blend: AUG-CC-PVTZ-JKFIT
  @DF-RHF Final Energy:  -157.34717539883184
    Total Energy =                       -157.3471753988318369
  Basis Set: (AUG-CC-PVTZ AUX)
    Blend: AUG-CC-PVTZ-RI
    Molecular point group: c1
  Basis Set: AUG-CC-PVTZ
    Blend: AUG-CC-PVTZ
  Basis Set: (AUG-CC-PVTZ AUX)
    Blend: AUG-CC-PVTZ-JKFIT
  Basis Set: (AUG-CC-PVTZ AUX)
    Blend: AUG-CC-PVTZ-JKFIT
	 Reference Energy          =    -157.3471753988318369 [Eh]
	 Singles Energy            =      -0.0000000000000000 [Eh]
	 Same-Spin Energy          =      -0.1654855363754475 [Eh]
	 Opposite-Spin Energy      =      -0.6394824983262097 [Eh]
	 Correlation Energy        =      -0.8049680347016572 [Eh]
	 Total Energy              =    -158.1521434335334959 [Eh]
	 SCS Total Energy          =    -158.1697162422817655 [Eh]
  @DF-RHF Final Energy:  -157.35011546104886
    Total Energy =                       -157.3501154610488584
  @DF-RHF Final Energy:  -157.35102158209975
    Total Energy =                       -157.3510215820997473
  @DF-RHF Final Energy:  -157.35129637490701
    Total Energy =                       -157.3512963749070082
  Charge       = 0
  Multiplicity = 1
  Basis Set: AUG-CC-PVTZ
    Blend: AUG-CC-PVTZ
  Basis Set: (AUG-CC-PVTZ AUX)
    Blend: AUG-CC-PVTZ-JKFIT

    Orbital Energies (a.u.)
    -----------------------

    Doubly Occupied:

       1A    -11.211691     2A    -11.210887     3A    -11.205887
       4A    -11.205520     5A     -1.072603     6A     -0.980137
       7A     -0.862040     8A     -0.788951     9A     -0.638684
      10A     -0.583467    11A     -0.577755    12A     -0.569564
      13A     -0.511138    14A     -0.497085    15A     -0.470373
      16A     -0.456580    17A     -0.456067

  @DF-RHF Final Energy:  -157.35127435183577

   => Energetics <=

    Nuclear Repulsion Energy =            131.2696679965098383
    One-Electron Energy =                -470.6450294937634453
    Two-Electron Energy =                 182.0240871454178375
    DFT Exchange-Correlation Energy =       0.0000000000000000
    Empirical Dispersion Energy =           0.0000000000000000
    PCM Polarization Energy =               0.0000000000000000
    EFP Energy =                            0.0000000000000000
    Total Energy =                       -157.3512743518357695
  Basis Set: (AUG-CC-PVTZ AUX)
    Blend: AUG-CC-PVTZ-RI
    Molecular point group: c1
  Basis Set: AUG-CC-PVTZ
    Blend: AUG-CC-PVTZ
  Basis Set: (AUG-CC-PVTZ AUX)
    Blend: AUG-CC-PVTZ-JKFIT
  Basis Set: (AUG-CC-PVTZ AUX)
    Blend: AUG-CC-PVTZ-JKFIT
	 Reference Energy          =    -157.3512743518357695 [Eh]
	 Singles Energy            =      -0.0000000000000000 [Eh]
	 Same-Spin Energy          =      -0.1654445208919483 [Eh]
	 Opposite-Spin Energy      =      -0.6398947000827355 [Eh]
	 Correlation Energy        =      -0.8053392209746838 [Eh]
	 Total Energy              =    -158.1566135728104427 [Eh]

	 ================> DF-SCS-MP2 Energies <==================
	-----------------------------------------------------------
	 SCS Same-Spin Scale       =       0.3333333333333333 [-]
	 SCS Opposite-Spin Scale   =       1.2000000000000000 [-]
	 SCS Same-Spin Energy      =      -0.0551481736306494 [Eh]
	 SCS Opposite-Spin Energy  =      -0.7678736400992826 [Eh]
	 SCS Correlation Energy    =      -0.8230218137299320 [Eh]
	 SCS Total Energy          =    -158.1742961655656927 [Eh]
	-----------------------------------------------------------

  -Total Gradient:
     Atom            X                  Y                   Z
    ------   -----------------  -----------------  -----------------
       1       -0.000049507560    -0.000037549929     0.000035711460
       2       -0.000026666737     0.000058382017     0.000002353564
       3       -0.000022582997    -0.000022936994    -0.000067098569
       4        0.000176870067    -0.000027378394     0.000045502085
       5        0.000016664141     0.000009087788    -0.000032339885
       6       -0.000001336048     0.000000284133     0.000038446518
       7       -0.000033279956    -0.000016101396    -0.000012672464
       8        0.000005139945    -0.000003095324     0.000034766280
       9        0.000020629740     0.000007546500    -0.000029289136
      10       -0.000075059066     0.000005947780    -0.000016602323
      11        0.000026244346    -0.000037614811    -0.000050339635
      12        0.000001198285    -0.000050007295     0.000042013377
      13        0.000003626109     0.000038573599     0.000008393942
      14       -0.000041940265     0.000074862326     0.000001154784

  **** Optimization is complete! (in 5 steps) ****
    Final optimized geometry and variables:
    Molecular point group: c1

    Geometry (in Angstrom), charge = 0, multiplicity = 1:

    H           -2.353335069830     0.050426921882     0.309116685581
    H           -2.209180975581     1.690610168184    -0.313763132759
    H           -1.911766424721     0.315468213822    -1.371829136796
    C           -1.780797932497     0.691938004617    -0.358696315948
    H            0.242462138069     1.357355312335    -0.636544491693
    H           -0.196623231966     1.093818837522     1.035029964962
    C           -0.314447986477     0.693626338861     0.026754487888
    H           -0.258551923282    -1.350565565498     0.630048401027
    H            0.179023456782    -1.087889674835    -1.035517879018
    C            0.306004207348    -0.690381698750    -0.028488837176
    H            2.417910074994    -1.057488308820    -0.448107939239
    H            1.977630126788    -1.321737279406     1.227701196812
    H            2.124306656146     0.310216529034     0.607012083639
    C            1.788244399268    -0.695200714546     0.360166467892

*** Psi4 exiting successfully. Buy a developer a beer!
