                              Psi4 1.0.0 Driver

  ==> Input File <==

--------------------------------------------------------------------------

memory 1000 mb

molecule butane {
  symmetry C1
  0 1
  H      1.604   0.760   -8.260
  H      1.745   2.388   -8.880
  H      2.043   1.024   -9.930
  C      2.142   1.395   -8.932
  H      4.169   2.051   -9.210
  H      3.731   1.788   -7.539
  C      3.631   1.416   -8.537
  H      4.405   -0.367   -7.623
  H      3.492   -0.657   -9.084
  C      4.203   -0.012   -8.612
  H      5.904   -0.993   -9.482
  H      6.219   0.644   -8.959
  H      5.306   0.354   -10.419
  C      5.507   -0.001   -9.430
  units Angstrom
}

dih_string = "4 7 10 14 130"
set optking fixed_dihedral = $dih_string

optimize('MP2/6-31G(d)')
--------------------------------------------------------------------------

    Molecular point group: c1
  Charge       = 0
  Multiplicity = 1
  Basis Set: 6-31G(D)
  Basis Set:
  @DF-RHF Final Energy:  -157.28829855191387
    Total Energy =                       -157.2882985519138401
  Basis Set:
    Molecular point group: c1
  Basis Set: 6-31G(D)
  Basis Set:
  Basis Set:
	 Reference Energy          =    -157.2882985519138686 [Eh]
	 Singles Energy            =      -0.0000000000000000 [Eh]
	 Same-Spin Energy          =      -0.1244181095023516 [Eh]
	 Opposite-Spin Energy      =      -0.4204083512323415 [Eh]
	 Correlation Energy        =      -0.5448264607346931 [Eh]
	 Total Energy              =    -157.8331250126485656 [Eh]
	 SCS Total Energy          =    -157.8342612765601416 [Eh]
  Basis Set: 6-31G(D)
  Basis Set:
  @DF-RHF Final Energy:  -157.29130688463741
    Total Energy =                       -157.2913068846373505
  Basis Set:
  Basis Set: 6-31G(D)
  Basis Set:
  @DF-RHF Final Energy:  -157.29219281508315
    Total Energy =                       -157.2921928150830126
  @DF-RHF Final Energy:  -157.29248840393404
    Total Energy =                       -157.2924884039339304
  @DF-RHF Final Energy:  -157.29250862994988
    Total Energy =                       -157.2925086299498503
  @DF-RHF Final Energy:  -157.29252312734386
    Total Energy =                       -157.2925231273437703
	 Singles Energy            =      -0.0000000000000000 [Eh]
	 Same-Spin Energy          =      -0.1242895531903484 [Eh]
	 Opposite-Spin Energy      =      -0.4223947953126794 [Eh]
	 Correlation Energy        =      -0.5466843485030277 [Eh]
	 Total Energy              =    -157.8392074758468766 [Eh]
	 SCS Total Energy          =    -157.8408267327825172 [Eh]
  Charge       = 0
  Multiplicity = 1
  Basis Set: 6-31G(D)
  Basis Set:

    Orbital Energies (a.u.)
    -----------------------

    Doubly Occupied:

       1A    -11.215494     2A    -11.214933     3A    -11.210492
       4A    -11.210485     5A     -1.067835     6A     -0.979291
       7A     -0.859593     8A     -0.786371     9A     -0.631147
      10A     -0.592429    11A     -0.580723    12A     -0.554381
      13A     -0.509531    14A     -0.504952    15A     -0.465034
      16A     -0.455571    17A     -0.454062

  @DF-RHF Final Energy:  -157.29252243242556

   => Energetics <=

    Nuclear Repulsion Energy =            130.9135728735019768
    One-Electron Energy =                -469.8275418453288239
    Two-Electron Energy =                 181.6214465394012905
    DFT Exchange-Correlation Energy =       0.0000000000000000
    Empirical Dispersion Energy =           0.0000000000000000
    PCM Polarization Energy =               0.0000000000000000
    EFP Energy =                            0.0000000000000000
    Total Energy =                       -157.2925224324255851
  Basis Set:
    Molecular point group: c1
  Basis Set: 6-31G(D)
  Basis Set:
  Basis Set:
	 Reference Energy          =    -157.2925224324255566 [Eh]
	 Singles Energy            =      -0.0000000000000000 [Eh]
	 Same-Spin Energy          =      -0.1242889760572786 [Eh]
	 Opposite-Spin Energy      =      -0.4223961377598797 [Eh]
	 Correlation Energy        =      -0.5466851138171582 [Eh]
	 Total Energy              =    -157.8392075462427044 [Eh]

	 ================> DF-SCS-MP2 Energies <==================
	-----------------------------------------------------------
	 SCS Same-Spin Scale       =       0.3333333333333333 [-]
	 SCS Opposite-Spin Scale   =       1.2000000000000000 [-]
	 SCS Same-Spin Energy      =      -0.0414296586857595 [Eh]
	 SCS Opposite-Spin Energy  =      -0.5068753653118556 [Eh]
	 SCS Correlation Energy    =      -0.5483050239976152 [Eh]
	 SCS Total Energy          =    -157.8408274564231704 [Eh]
	-----------------------------------------------------------

  -Total Gradient:
     Atom            X                  Y                   Z
    ------   -----------------  -----------------  -----------------
       1       -0.000000218463    -0.000000249944    -0.000002781668
       2        0.000000467424    -0.000006231746    -0.000000197078
       3       -0.000006414489     0.000001780124     0.000004547271
       4        0.000450950827     0.000306573020    -0.001764871304
       5        0.000007865729     0.000003639024     0.000010529763
       6        0.000018358346     0.000000580458    -0.000001415929
       7       -0.000999110585    -0.000570362753     0.001836368346
       8       -0.000018182495    -0.000000351822     0.000003943838
       9       -0.000004289139    -0.000003294636     0.000012389896
      10        0.001497194506     0.000597653856     0.001448761653
      11       -0.000000546661     0.000006362849    -0.000000220969
      12       -0.000000520889     0.000000029766    -0.000002639399
      13        0.000007417985    -0.000001771979     0.000002527944
      14       -0.000952972099    -0.000334356218    -0.001546942366

  **** Optimization is complete! (in 7 steps) ****
    Final optimized geometry and variables:
    Molecular point group: c1

    Geometry (in Angstrom), charge = 0, multiplicity = 1:

    H           -2.324373557539     0.043324696347     0.634432028039
    H           -2.186555026076     1.703320485171     0.040327796733
    H           -1.890314894055     0.343001829054    -1.051798347467
    C           -1.753216085272     0.701314249540    -0.027356573089
    H            0.255877955643     1.383850175524    -0.329689151437
    H           -0.145397150451     1.116092662222     1.351274870112
    C           -0.274129328054     0.701481462085     0.345733455284
    H            0.542232336579    -1.094069747458     1.265598197917
    H           -0.338659714286    -1.388441557310    -0.216201559709
    C            0.366049666872    -0.696379738706     0.260416998083
    H            2.104452526073    -1.707879803485    -0.581693569683
    H            2.408073702131    -0.038693213686    -0.082526811015
    H            1.494381288716    -0.364961744374    -1.559112059883
    C            1.668038308676    -0.706041715581    -0.534332956177

*** Psi4 exiting successfully. Buy a developer a beer!
