                              Psi4 1.0.0 Driver

  ==> Input File <==

--------------------------------------------------------------------------

memory 1000 mb

molecule butane {
  symmetry C1
  0 1
  H      1.604   0.760   -8.260
  H      1.745   2.388   -8.880
  H      2.043   1.024   -9.930
  C      2.142   1.395   -8.932
  H      4.169   2.051   -9.210
  H      3.731   1.788   -7.539
  C      3.631   1.416   -8.537
  H      4.742   -0.132   -9.528
  H      4.863   -0.176   -7.786
  C      4.203   -0.012   -8.612
  H      3.448   -2.023   -8.609
  H      2.390   -0.868   -9.382
  H      2.511   -0.911   -7.640
  C      3.050   -1.031   -8.557
  units Angstrom
}

dih_string = "4 7 10 14 340"
set optking fixed_dihedral = $dih_string

optimize('MP2/6-31G(d)')
--------------------------------------------------------------------------

    Molecular point group: c1
  Charge       = 0
  Multiplicity = 1
  Basis Set: 6-31G(D)
  Basis Set:
  @DF-RHF Final Energy:  -157.27686027082933
    Total Energy =                       -157.2768602708295589
  Basis Set:
    Molecular point group: c1
  Basis Set: 6-31G(D)
  Basis Set:
  Basis Set:
	 Reference Energy          =    -157.2768602708293315 [Eh]
	 Singles Energy            =      -0.0000000000000000 [Eh]
	 Same-Spin Energy          =      -0.1254345681756867 [Eh]
	 Opposite-Spin Energy      =      -0.4216306925658476 [Eh]
	 Correlation Energy        =      -0.5470652607415343 [Eh]
	 Total Energy              =    -157.8239255315708647 [Eh]
	 SCS Total Energy          =    -157.8246286246335899 [Eh]
  Basis Set: 6-31G(D)
  Basis Set:
  @DF-RHF Final Energy:  -157.28575287969448
    Total Energy =                       -157.2857528796943427
  Basis Set:
  Basis Set: 6-31G(D)
  Basis Set:
  @DF-RHF Final Energy:  -157.28838296320859
    Total Energy =                       -157.2883829632085053
  @DF-RHF Final Energy:  -157.28959385334011
    Total Energy =                       -157.2895938533397953
  @DF-RHF Final Energy:  -157.29010509678520
    Total Energy =                       -157.2901050967851688
  @DF-RHF Final Energy:  -157.29018078633251
    Total Energy =                       -157.2901807863325416
  @DF-RHF Final Energy:  -157.29017744937551
    Total Energy =                       -157.2901774493755909
	 Singles Energy            =      -0.0000000000000000 [Eh]
	 Same-Spin Energy          =      -0.1244381400619028 [Eh]
	 Opposite-Spin Energy      =      -0.4226788430088627 [Eh]
	 Correlation Energy        =      -0.5471169830707655 [Eh]
	 Total Energy              =    -157.8372944324462708 [Eh]
	 SCS Total Energy          =    -157.8388714410067735 [Eh]
  Charge       = 0
  Multiplicity = 1
  Basis Set: 6-31G(D)
  Basis Set:

    Orbital Energies (a.u.)
    -----------------------

    Doubly Occupied:

       1A    -11.216250     2A    -11.215702     3A    -11.209647
       4A    -11.209636     5A     -1.066661     6A     -0.973945
       7A     -0.876737     8A     -0.767896     9A     -0.631884
      10A     -0.614517    11A     -0.565981    12A     -0.537788
      13A     -0.524705    14A     -0.508980    15A     -0.463176
      16A     -0.458049    17A     -0.444970

  @DF-RHF Final Energy:  -157.29018234776996

   => Energetics <=

    Nuclear Repulsion Energy =            132.8731739051342799
    One-Electron Energy =                -473.7536660068660694
    Two-Electron Energy =                 183.5903097539616624
    DFT Exchange-Correlation Energy =       0.0000000000000000
    Empirical Dispersion Energy =           0.0000000000000000
    PCM Polarization Energy =               0.0000000000000000
    EFP Energy =                            0.0000000000000000
    Total Energy =                       -157.2901823477700987
  Basis Set:
    Molecular point group: c1
  Basis Set: 6-31G(D)
  Basis Set:
  Basis Set:
	 Reference Energy          =    -157.2901823477699566 [Eh]
	 Singles Energy            =      -0.0000000000000000 [Eh]
	 Same-Spin Energy          =      -0.1244374855672287 [Eh]
	 Opposite-Spin Energy      =      -0.4226749579887186 [Eh]
	 Correlation Energy        =      -0.5471124435559473 [Eh]
	 Total Energy              =    -157.8372947913259168 [Eh]

	 ================> DF-SCS-MP2 Energies <==================
	-----------------------------------------------------------
	 SCS Same-Spin Scale       =       0.3333333333333333 [-]
	 SCS Opposite-Spin Scale   =       1.2000000000000000 [-]
	 SCS Same-Spin Energy      =      -0.0414791618557429 [Eh]
	 SCS Opposite-Spin Energy  =      -0.5072099495864624 [Eh]
	 SCS Correlation Energy    =      -0.5486891114422052 [Eh]
	 SCS Total Energy          =    -157.8388714592121573 [Eh]
	-----------------------------------------------------------

  -Total Gradient:
     Atom            X                  Y                   Z
    ------   -----------------  -----------------  -----------------
       1        0.000027175729     0.000001408784    -0.000003738855
       2        0.000016485360    -0.000018967317     0.000000497705
       3       -0.000001582910    -0.000001924149     0.000002966440
       4       -0.000986484822    -0.000487060996     0.004317853112
       5       -0.000028453486    -0.000038899764    -0.000018007357
       6       -0.000010966245    -0.000016233785     0.000028706460
       7        0.001169476264     0.000702763509    -0.008085901099
       8       -0.000015606908     0.000004920697    -0.000030308176
       9       -0.000049587453     0.000008497228     0.000013334863
      10        0.000426602223    -0.000056571983     0.008188407454
      11       -0.000001672956     0.000024802906     0.000000345252
      12        0.000019505408     0.000018066187     0.000007148028
      13       -0.000002110014    -0.000000005907    -0.000003049460
      14       -0.000562780193    -0.000140795409    -0.004418254368

  **** Optimization is complete! (in 8 steps) ****
    Final optimized geometry and variables:
    Molecular point group: c1

    Geometry (in Angstrom), charge = 0, multiplicity = 1:

    H           -1.740602679807     0.537809189055     0.459811619442
    H           -1.446350883778     2.143915241447    -0.208952655410
    H           -1.372230528246     0.727672036391    -1.258252011781
    C           -1.134683080417     1.096673191037    -0.255976075473
    H            0.925348456679     1.614338336579    -0.625410225706
    H            0.512031063265     1.397928174571     1.057792113343
    C            0.354844993357     0.976735671636     0.057570959202
    H            1.450394199278    -0.603338600472    -0.931474730983
    H            1.709278080893    -0.547559165094     0.794996322655
    C            0.936206772888    -0.453982744980     0.025529686379
    H            0.433199124977    -2.554144373966     0.143678566062
    H           -0.816165136648    -1.573003917926    -0.624344297697
    H           -0.611450142694    -1.530926515733     1.130591911225
    C           -0.076032563465    -1.586897758931     0.178045856920

*** Psi4 exiting successfully. Buy a developer a beer!
