                               Psi4 1.1 release

  ==> Input File <==

--------------------------------------------------------------------------

memory 5 Gb

molecule phepyrFOH_neutral {
  symmetry C1
  0 1
  C      1.885   -1.036   -0.112
  C      0.807   -0.463   0.561
  C      3.825   -3.269   -0.988
  C      5.328   -1.753   0.119
  C      1.800   -1.079   2.676
  C      4.927   -3.802   -1.637
  C      6.363   -2.354   -0.579
  C      2.921   -1.631   0.608
  C      4.038   -2.225   -0.095
  C      0.764   -0.484   1.955
  C      2.878   -1.652   2.002
  N      6.195   -3.370   -1.455
  O      -0.289   0.076   2.612
  F      3.866   -2.220   2.709
  H      1.904   -1.012   -1.199
  H      0.002   -0.002   -0.006
  H      2.833   -3.663   -1.183
  H      5.532   -0.940   0.809
  H      1.772   -1.099   3.762
  H      4.814   -4.616   -2.345
  H      7.387   -2.023   -0.446
  H      -0.005   0.411   3.477
  units Angstrom
}

dih_string = "2 10 13 22 210"
set optking fixed_dihedral = $dih_string

optimize('MP2/aug-cc-PVTZ')
--------------------------------------------------------------------------

    Molecular point group: c1
  Charge       = 0
  Multiplicity = 1
  Basis Set: AUG-CC-PVTZ
    Blend: AUG-CC-PVTZ
  Basis Set: (AUG-CC-PVTZ AUX)
    Blend: AUG-CC-PVTZ-JKFIT
  @DF-RHF Final Energy:  -650.17258267521686
    Total Energy =                       -650.1725826752167450
  Basis Set: (AUG-CC-PVTZ AUX)
    Blend: AUG-CC-PVTZ-RI
    Molecular point group: c1
  Basis Set: AUG-CC-PVTZ
    Blend: AUG-CC-PVTZ
  Basis Set: (AUG-CC-PVTZ AUX)
    Blend: AUG-CC-PVTZ-JKFIT
  Basis Set: (AUG-CC-PVTZ AUX)
    Blend: AUG-CC-PVTZ-JKFIT
	 Reference Energy          =    -650.1725826752168587 [Eh]
	 Singles Energy            =      -0.0000000000000013 [Eh]
	 Same-Spin Energy          =      -0.6774154077423784 [Eh]
	 Opposite-Spin Energy      =      -2.0191613251083695 [Eh]
	 Correlation Energy        =      -2.6965767328507493 [Eh]
	 Total Energy              =    -652.8691594080676168 [Eh]
	 SCS Total Energy          =    -652.8213814012610783 [Eh]
  @DF-RHF Final Energy:  -650.17873903946952
    Total Energy =                       -650.1787390394695194
    Molecular point group: c1
  Charge       = 0
  Multiplicity = 1
  Basis Set: AUG-CC-PVTZ
    Blend: AUG-CC-PVTZ
  Basis Set: (AUG-CC-PVTZ AUX)
    Blend: AUG-CC-PVTZ-JKFIT

    Orbital Energies (a.u.)
    -----------------------

    Doubly Occupied:

       1A    -26.322849     2A    -20.606125     3A    -15.563304
       4A    -11.345547     5A    -11.323962     6A    -11.272884
       7A    -11.272066     8A    -11.267858     9A    -11.262181
      10A    -11.254745    11A    -11.250727    12A    -11.241668
      13A    -11.239052    14A    -11.237805    15A     -1.642586
      16A     -1.423496    17A     -1.259418    18A     -1.185145
      19A     -1.112184    20A     -1.043740    21A     -1.035193
      22A     -1.023949    23A     -0.892149    24A     -0.876751
      25A     -0.856786    26A     -0.827958    27A     -0.773061
      28A     -0.745654    29A     -0.727096    30A     -0.709491
      31A     -0.696278    32A     -0.666839    33A     -0.662772
      34A     -0.642569    35A     -0.636375    36A     -0.625316
      37A     -0.607312    38A     -0.597919    39A     -0.570545
      40A     -0.546535    41A     -0.540533    42A     -0.530932
      43A     -0.523178    44A     -0.497468    45A     -0.418528
      46A     -0.392338    47A     -0.361161    48A     -0.348539
      49A     -0.328618

  @DF-RHF Final Energy:  -650.18045084363303

   => Energetics <=

    Nuclear Repulsion Energy =            814.2087982409817641
    One-Electron Energy =               -2503.2001246719860319
    Two-Electron Energy =                1038.8108755873713562
    DFT Exchange-Correlation Energy =       0.0000000000000000
    Empirical Dispersion Energy =           0.0000000000000000
    PCM Polarization Energy =               0.0000000000000000
    EFP Energy =                            0.0000000000000000
    Total Energy =                       -650.1804508436330252
  Basis Set: (AUG-CC-PVTZ AUX)
    Blend: AUG-CC-PVTZ-RI
    Molecular point group: c1

    Geometry (in Angstrom), charge = 0, multiplicity = 1:

       Center              X                  Y                   Z               Mass
    ------------   -----------------  -----------------  -----------------  -----------------
           C         -1.352400590576     0.734270858162    -0.761730668265    12.000000000000
           C         -2.423264875332     1.309894408009    -0.097658109444    12.000000000000
           C          0.650675771596    -1.472674971584    -1.696877312827    12.000000000000
           C          2.147304164781    -0.010595618538    -0.570343441371    12.000000000000
           C         -1.408702996448     0.729874492932     2.001622713914    12.000000000000
           C          1.747342017603    -2.008212486420    -2.354388050587    12.000000000000
           C          3.180610694431    -0.608648187659    -1.273331167049    12.000000000000
           C         -0.288883328525     0.157288464530    -0.073242561588    12.000000000000
           C          0.844534109744    -0.446267838874    -0.780935887339    12.000000000000
           C         -2.452443256955     1.303352287331     1.287937034042    12.000000000000
           C         -0.350153116822     0.176584487248     1.312349010554    12.000000000000
           N          3.001503076778    -1.594824662871    -2.156922025162    14.003074004780
           O         -3.528905095769     1.866201946076     1.909632739095    15.994914619560
           F          0.647231405243    -0.377541815936     2.019170818631    18.998403224000
           H         -1.330079472268     0.740595717917    -1.840914675999     1.007825032070
           H         -3.235602344754     1.762040993130    -0.643324635670     1.007825032070
           H         -0.341102565454    -1.850457555108    -1.894223602843     1.007825032070
           H          2.353114540883     0.784249774743     0.129587650063     1.007825032070
           H         -1.415544810162     0.705263457528     3.080573375918     1.007825032070
           H          1.617905469465    -2.808334360831    -3.069987790333     1.007825032070
           H          4.200896990587    -0.283294939936    -1.125901879587     1.007825032070
           H         -3.256102128953     2.217029770250     2.761841048026     1.007825032070

  Basis Set: AUG-CC-PVTZ
    Blend: AUG-CC-PVTZ
  Basis Set: (AUG-CC-PVTZ AUX)
    Blend: AUG-CC-PVTZ-JKFIT
  Basis Set: (AUG-CC-PVTZ AUX)
    Blend: AUG-CC-PVTZ-JKFIT
	 Reference Energy          =    -650.1804508436330252 [Eh]
	 Singles Energy            =      -0.0000000000000003 [Eh]
	 Same-Spin Energy          =      -0.6763674796217686 [Eh]
	 Opposite-Spin Energy      =      -2.0163699402019852 [Eh]
	 Correlation Energy        =      -2.6927374198237541 [Eh]
	 Total Energy              =    -652.8731882634567683 [Eh]

	 ================> DF-SCS-MP2 Energies <==================
	-----------------------------------------------------------
	 SCS Same-Spin Scale       =       0.3333333333333333 [-]
	 SCS Opposite-Spin Scale   =       1.2000000000000000 [-]
	 SCS Same-Spin Energy      =      -0.2254558265405895 [Eh]
	 SCS Opposite-Spin Energy  =      -2.4196439282423823 [Eh]
	 SCS Correlation Energy    =      -2.6450997547829722 [Eh]
	 SCS Total Energy          =    -652.8255505984160436 [Eh]
	-----------------------------------------------------------

  -Total Gradient:
     Atom            X                  Y                   Z
    ------   -----------------  -----------------  -----------------
       1        0.002845959350     0.000983888519    -0.001250355560
       2        0.000507769958     0.002406849040     0.001734974628
       3       -0.000242717626    -0.000917965868     0.001636326302
       4       -0.000639202171     0.001209146896    -0.000503334685
       5        0.000463574917    -0.000752771630    -0.001049836963
       6       -0.001058609259    -0.000106383468     0.000382764831
       7       -0.000231576595     0.000748349882     0.000750181942
       8       -0.003024302635     0.001426246148     0.001048553507
       9        0.001623396603    -0.000805898047    -0.001723764599
      10       -0.002196101727    -0.001949344815    -0.001209492403
      11        0.001885453671    -0.003028867924     0.002327729696
      12        0.000507995223    -0.000285644694    -0.000389185624
      13        0.000338137360    -0.002177334344     0.002158693463
      14       -0.001365118016     0.000829814266    -0.001299186862
      15       -0.000586731889     0.000016843628     0.000190250568
      16        0.000056943242    -0.000488319252    -0.000532152024
      17        0.000199761911     0.000118749787    -0.000471059101
      18        0.000199710774    -0.000010018009    -0.000156180119
      19       -0.000274697920     0.000621261845     0.000173953960
      20        0.000345784281    -0.000104019835    -0.000182827754
      21        0.000203280272    -0.000232309216    -0.000186141997
      22        0.000441290260     0.002497727101    -0.001449911191

*** Psi4 exiting successfully. Buy a developer a beer!
