                               Psi4 1.1 release

  ==> Input File <==

--------------------------------------------------------------------------

memory 1000 mb

molecule butane {
  symmetry C1
  0 1
  H      4.807   1.968   -6.826
  H      3.375   2.945   -7.048
  H      3.236   1.318   -6.428
  C      3.773   1.952   -7.100
  H      2.596   1.400   -8.810
  H      4.168   2.051   -9.210
  C      3.631   1.416   -8.537
  H      3.665   -0.647   -7.940
  H      4.104   -0.384   -9.610
  C      4.203   -0.012   -8.612
  H      6.088   -0.983   -8.270
  H      5.791   0.381   -7.220
  H      6.230   0.644   -8.890
  C      5.691   0.009   -8.218
  units Angstrom
}

dih_string = "14 10 7 4 300"
set optking fixed_dihedral = $dih_string

optimize('MP2/aug-cc-pvtz')
--------------------------------------------------------------------------

    Molecular point group: c1
  Charge       = 0
  Multiplicity = 1
  Basis Set: AUG-CC-PVTZ
    Blend: AUG-CC-PVTZ
  Basis Set: (AUG-CC-PVTZ AUX)
    Blend: AUG-CC-PVTZ-JKFIT
  @DF-RHF Final Energy:  -157.34837153704137
    Total Energy =                       -157.3483715370413734
  Basis Set: (AUG-CC-PVTZ AUX)
    Blend: AUG-CC-PVTZ-RI
    Molecular point group: c1
  Basis Set: AUG-CC-PVTZ
    Blend: AUG-CC-PVTZ
  Basis Set: (AUG-CC-PVTZ AUX)
    Blend: AUG-CC-PVTZ-JKFIT
  Basis Set: (AUG-CC-PVTZ AUX)
    Blend: AUG-CC-PVTZ-JKFIT
	 Reference Energy          =    -157.3483715370413734 [Eh]
	 Singles Energy            =      -0.0000000000000001 [Eh]
	 Same-Spin Energy          =      -0.1664534809830961 [Eh]
	 Opposite-Spin Energy      =      -0.6399023477741977 [Eh]
	 Correlation Energy        =      -0.8063558287572939 [Eh]
	 Total Energy              =    -158.1547273657986636 [Eh]
	 SCS Total Energy          =    -158.1717388480314526 [Eh]
  @DF-RHF Final Energy:  -157.35261125285027
    Total Energy =                       -157.3526112528502665
  @DF-RHF Final Energy:  -157.35375872141177
    Total Energy =                       -157.3537587214117650
  @DF-RHF Final Energy:  -157.35439664036946
    Total Energy =                       -157.3543966403694583
  @DF-RHF Final Energy:  -157.35448378902157
    Total Energy =                       -157.3544837890215717
  @DF-RHF Final Energy:  -157.35449168069982
    Total Energy =                       -157.3544916806998231
  @DF-RHF Final Energy:  -157.35447451977666
    Total Energy =                       -157.3544745197766588
  Charge       = 0
  Multiplicity = 1
  Basis Set: AUG-CC-PVTZ
    Blend: AUG-CC-PVTZ
  Basis Set: (AUG-CC-PVTZ AUX)
    Blend: AUG-CC-PVTZ-JKFIT

    Orbital Energies (a.u.)
    -----------------------

    Doubly Occupied:

       1A    -11.211633     2A    -11.211003     3A    -11.205475
       4A    -11.205474     5A     -1.074550     6A     -0.976604
       7A     -0.874718     8A     -0.775160     9A     -0.627498
      10A     -0.622045    11A     -0.573445    12A     -0.534531
      13A     -0.531873    14A     -0.503527    15A     -0.461304
      16A     -0.458950    17A     -0.457270

  @DF-RHF Final Energy:  -157.35447184941307

   => Energetics <=

    Nuclear Repulsion Energy =            133.6374915225167399
    One-Electron Energy =                -475.3738075366986209
    Two-Electron Energy =                 184.3818441647687791
    DFT Exchange-Correlation Energy =       0.0000000000000000
    Empirical Dispersion Energy =           0.0000000000000000
    PCM Polarization Energy =               0.0000000000000000
    EFP Energy =                            0.0000000000000000
    Total Energy =                       -157.3544718494130734
  Basis Set: (AUG-CC-PVTZ AUX)
    Blend: AUG-CC-PVTZ-RI
    Molecular point group: c1
  Basis Set: AUG-CC-PVTZ
    Blend: AUG-CC-PVTZ
  Basis Set: (AUG-CC-PVTZ AUX)
    Blend: AUG-CC-PVTZ-JKFIT
  Basis Set: (AUG-CC-PVTZ AUX)
    Blend: AUG-CC-PVTZ-JKFIT
	 Reference Energy          =    -157.3544718494130734 [Eh]
	 Singles Energy            =      -0.0000000000000002 [Eh]
	 Same-Spin Energy          =      -0.1658874728091526 [Eh]
	 Opposite-Spin Energy      =      -0.6397705635647944 [Eh]
	 Correlation Energy        =      -0.8056580363739471 [Eh]
	 Total Energy              =    -158.1601298857870290 [Eh]

	 ================> DF-SCS-MP2 Energies <==================
	-----------------------------------------------------------
	 SCS Same-Spin Scale       =       0.3333333333333333 [-]
	 SCS Opposite-Spin Scale   =       1.2000000000000000 [-]
	 SCS Same-Spin Energy      =      -0.0552958242697175 [Eh]
	 SCS Opposite-Spin Energy  =      -0.7677246762777533 [Eh]
	 SCS Correlation Energy    =      -0.8230205005474710 [Eh]
	 SCS Total Energy          =    -158.1774923499605450 [Eh]
	-----------------------------------------------------------

  -Total Gradient:
     Atom            X                  Y                   Z
    ------   -----------------  -----------------  -----------------
       1        0.000004491636     0.000003926152     0.000000854869
       2       -0.000001688856     0.000005253835    -0.000005260325
       3       -0.000002777872    -0.000003392487    -0.000005474792
       4        0.000204543586     0.000093966188    -0.000025103770
       5       -0.000005348943    -0.000006487005    -0.000016108608
       6        0.000000048394     0.000002304673     0.000011551787
       7       -0.000295112470    -0.000155639356     0.000142981062
       8        0.000011626749     0.000001678683     0.000001391136
       9       -0.000016335270    -0.000000628856    -0.000007964328
      10        0.000137201735     0.000101687132    -0.000320347516
      11       -0.000002782879    -0.000006996169    -0.000000368748
      12        0.000001550781    -0.000001621975     0.000005480333
      13       -0.000005644761     0.000000576273    -0.000003863752
      14       -0.000029771833    -0.000034627088     0.000222232653

  **** Optimization is complete! (in 8 steps) ****
    Final optimized geometry and variables:
    Molecular point group: c1

    Geometry (in Angstrom), charge = 0, multiplicity = 1:

    H            0.425886758061     1.322601550183     1.284655655212
    H           -1.120573718554     2.114427580970     1.040106890486
    H           -1.062577703899     0.493248565571     1.722369799768
    C           -0.606848911729     1.157251694390     0.988932763590
    H           -1.743267694942     0.527967777413    -0.714383900943
    H           -0.185448487955     1.213222748486    -1.113036686426
    C           -0.698811382562     0.560761564310    -0.404460798863
    H           -0.672966588145    -1.506619259804     0.149570680988
    H           -0.246697701886    -1.208108870935    -1.519106764670
    C           -0.110015925246    -0.837208378693    -0.503347391889
    H            1.768158510873    -1.893090828193    -0.313284645450
    H            1.526361428502    -0.655350624015     0.906498520553
    H            1.937083654604    -0.194348343414    -0.740838766043
    C            1.363104836065    -0.898773585356    -0.140128594996

*** Psi4 exiting successfully. Buy a developer a beer!
