                               Psi4 1.1 release

  ==> Input File <==

--------------------------------------------------------------------------

memory 1000 mb

molecule butane {
  symmetry C1
  0 1
  H      4.305   1.960   -10.503
  H      4.007   3.324   -9.452
  H      5.438   2.347   -9.231
  C      4.405   2.331   -9.505
  H      3.731   1.788   -7.538
  H      2.597   1.400   -8.810
  C      3.631   1.416   -8.537
  H      3.665   -0.647   -7.940
  H      4.104   -0.384   -9.610
  C      4.203   -0.012   -8.612
  H      6.088   -0.983   -8.270
  H      5.791   0.381   -7.220
  H      6.230   0.644   -8.890
  C      5.691   0.009   -8.218
  units Angstrom
}

dih_string = "14 10 7 4 60"
set optking fixed_dihedral = $dih_string

optimize('MP2/aug-cc-pvtz')
--------------------------------------------------------------------------

    Molecular point group: c1
  Charge       = 0
  Multiplicity = 1
  Basis Set: AUG-CC-PVTZ
    Blend: AUG-CC-PVTZ
  Basis Set: (AUG-CC-PVTZ AUX)
    Blend: AUG-CC-PVTZ-JKFIT
  @DF-RHF Final Energy:  -157.34835192459627
    Total Energy =                       -157.3483519245962725
  Basis Set: (AUG-CC-PVTZ AUX)
    Blend: AUG-CC-PVTZ-RI
    Molecular point group: c1
  Basis Set: AUG-CC-PVTZ
    Blend: AUG-CC-PVTZ
  Basis Set: (AUG-CC-PVTZ AUX)
    Blend: AUG-CC-PVTZ-JKFIT
  Basis Set: (AUG-CC-PVTZ AUX)
    Blend: AUG-CC-PVTZ-JKFIT
	 Reference Energy          =    -157.3483519245962725 [Eh]
	 Singles Energy            =      -0.0000000000000001 [Eh]
	 Same-Spin Energy          =      -0.1664536199923393 [Eh]
	 Opposite-Spin Energy      =      -0.6399047558442269 [Eh]
	 Correlation Energy        =      -0.8063583758365663 [Eh]
	 Total Energy              =    -158.1547103004328392 [Eh]
	 SCS Total Energy          =    -158.1717221716068025 [Eh]
  @DF-RHF Final Energy:  -157.35260114740683
    Total Energy =                       -157.3526011474068298
  @DF-RHF Final Energy:  -157.35375595591049
    Total Energy =                       -157.3537559559104864
  @DF-RHF Final Energy:  -157.35439627620389
    Total Energy =                       -157.3543962762038859
  @DF-RHF Final Energy:  -157.35447812029958
    Total Energy =                       -157.3544781202995750
  @DF-RHF Final Energy:  -157.35449306196182
    Total Energy =                       -157.3544930619618185
  @DF-RHF Final Energy:  -157.35447431630283
    Total Energy =                       -157.3544743163028272
  Charge       = 0
  Multiplicity = 1
  Basis Set: AUG-CC-PVTZ
    Blend: AUG-CC-PVTZ
  Basis Set: (AUG-CC-PVTZ AUX)
    Blend: AUG-CC-PVTZ-JKFIT

    Orbital Energies (a.u.)
    -----------------------

    Doubly Occupied:

       1A    -11.211634     2A    -11.211004     3A    -11.205475
       4A    -11.205474     5A     -1.074549     6A     -0.976604
       7A     -0.874717     8A     -0.775160     9A     -0.627498
      10A     -0.622046    11A     -0.573445    12A     -0.534531
      13A     -0.531873    14A     -0.503526    15A     -0.461303
      16A     -0.458951    17A     -0.457270

  @DF-RHF Final Energy:  -157.35447180432521

   => Energetics <=

    Nuclear Repulsion Energy =            133.6374894253219168
    One-Electron Energy =                -475.3738025567876662
    Two-Electron Energy =                 184.3818413271405348
    DFT Exchange-Correlation Energy =       0.0000000000000000
    Empirical Dispersion Energy =           0.0000000000000000
    PCM Polarization Energy =               0.0000000000000000
    EFP Energy =                            0.0000000000000000
    Total Energy =                       -157.3544718043252146
  Basis Set: (AUG-CC-PVTZ AUX)
    Blend: AUG-CC-PVTZ-RI
    Molecular point group: c1
  Basis Set: AUG-CC-PVTZ
    Blend: AUG-CC-PVTZ
  Basis Set: (AUG-CC-PVTZ AUX)
    Blend: AUG-CC-PVTZ-JKFIT
  Basis Set: (AUG-CC-PVTZ AUX)
    Blend: AUG-CC-PVTZ-JKFIT
	 Reference Energy          =    -157.3544718043252146 [Eh]
	 Singles Energy            =      -0.0000000000000001 [Eh]
	 Same-Spin Energy          =      -0.1658874956091101 [Eh]
	 Opposite-Spin Energy      =      -0.6397705884741243 [Eh]
	 Correlation Energy        =      -0.8056580840832345 [Eh]
	 Total Energy              =    -158.1601298884084486 [Eh]

	 ================> DF-SCS-MP2 Energies <==================
	-----------------------------------------------------------
	 SCS Same-Spin Scale       =       0.3333333333333333 [-]
	 SCS Opposite-Spin Scale   =       1.2000000000000000 [-]
	 SCS Same-Spin Energy      =      -0.0552958318697034 [Eh]
	 SCS Opposite-Spin Energy  =      -0.7677247061689491 [Eh]
	 SCS Correlation Energy    =      -0.8230205380386525 [Eh]
	 SCS Total Energy          =    -158.1774923423638768 [Eh]
	-----------------------------------------------------------

  -Total Gradient:
     Atom            X                  Y                   Z
    ------   -----------------  -----------------  -----------------
       1       -0.000005099615    -0.000004848151     0.000002575295
       2       -0.000004232893     0.000003355322     0.000004572482
       3        0.000004024379     0.000003352751     0.000002299995
       4        0.000160536290     0.000067228846     0.000147348906
       5        0.000005342196     0.000006189666    -0.000008585366
       6       -0.000012652235    -0.000010459592     0.000009360400
       7       -0.000178232689    -0.000083724350    -0.000306564127
       8       -0.000018735429    -0.000002358974    -0.000001375364
       9        0.000010909781     0.000000696147     0.000004548711
      10       -0.000039756972    -0.000006492882     0.000361661531
      11       -0.000001817382    -0.000006261495    -0.000002965790
      12       -0.000007016030    -0.000000116638     0.000000468808
      13        0.000004010441    -0.000000040781    -0.000003965281
      14        0.000082720157     0.000033480129    -0.000209380196

  **** Optimization is complete! (in 8 steps) ****
    Final optimized geometry and variables:
    Molecular point group: c1

    Geometry (in Angstrom), charge = 0, multiplicity = 1:

    H           -0.141477256479     1.055293494150    -1.790322125147
    H           -0.638717733013     2.406972988742    -0.778998636806
    H            0.889804753027     1.601464693187    -0.473850468994
    C           -0.143017921305     1.439020254384    -0.770875991762
    H           -0.784818876255     0.847343746348     1.187947787718
    H           -1.906123500936     0.432642924648    -0.087197599478
    C           -0.846447153738     0.471921893280     0.164917996208
    H           -0.853756313286    -1.574672636800     0.787141138689
    H           -0.405697941040    -1.339973732108    -0.886016306989
    C           -0.275309275554    -0.936100841746     0.119575281105
    H            1.536858113980    -2.035326524800     0.551216574768
    H            1.354305382610    -0.553430536661     1.482732040268
    H            1.817758876719    -0.481082520742    -0.212823043289
    C            1.191863626139    -1.005011547341     0.504873837913

*** Psi4 exiting successfully. Buy a developer a beer!
