                               Psi4 1.1 release

  ==> Input File <==

--------------------------------------------------------------------------

memory 5 Gb

molecule phepyrOH_cation {
  symmetry C1
  1 1
  C      1.885   -1.036   -0.112
  C      2.878   -1.652   2.002
  C      0.807   -0.463   0.561
  C      1.800   -1.079   2.676
  C      4.440   -1.719   -1.322
  C      4.716   -3.305   0.469
  C      5.516   -2.309   -1.970
  C      5.786   -3.855   -0.224
  C      2.921   -1.631   0.608
  C      4.040   -2.225   -0.090
  C      0.764   -0.484   1.955
  N      6.150   -3.348   -1.409
  O      -0.288   0.076   2.612
  H      1.904   -1.012   -1.199
  H      3.678   -2.112   2.578
  H      0.003   -0.001   -0.006
  H      1.772   -1.098   3.762
  H      3.931   -0.877   -1.782
  H      4.425   -3.721   1.429
  H      5.897   -1.982   -2.928
  H      6.368   -4.693   0.134
  H      6.938   -3.767   -1.902
  H      -0.005   0.412   3.477
  units Angstrom
}

dih_string = "3 11 13 23 210"
set optking fixed_dihedral = $dih_string

optimize('MP2/aug-cc-PVTZ')
--------------------------------------------------------------------------

    Molecular point group: c1
  Charge       = 1
  Multiplicity = 1
  Basis Set: AUG-CC-PVTZ
    Blend: AUG-CC-PVTZ
  Basis Set: (AUG-CC-PVTZ AUX)
    Blend: AUG-CC-PVTZ-JKFIT

    Orbital Energies (a.u.)
    -----------------------

    Doubly Occupied:

       1A    -20.699409     2A    -15.833194     3A    -11.484026
       4A    -11.483973     5A    -11.445790     6A    -11.432044
       7A    -11.414435     8A    -11.414258     9A    -11.379558
      10A    -11.378175    11A    -11.372385    12A    -11.357216
      13A    -11.354385    14A     -1.515582    15A     -1.511119
      16A     -1.321107    17A     -1.263940    18A     -1.236942
      19A     -1.154510    20A     -1.151142    21A     -1.068392
      22A     -1.054193    23A     -0.974484    24A     -0.962034
      25A     -0.950072    26A     -0.869857    27A     -0.859165
      28A     -0.854037    29A     -0.821560    30A     -0.798564
      31A     -0.780997    32A     -0.772652    33A     -0.756575
      34A     -0.736394    35A     -0.722633    36A     -0.706765
      37A     -0.705907    38A     -0.675006    39A     -0.653618
      40A     -0.634236    41A     -0.615985    42A     -0.571488
      43A     -0.537329    44A     -0.469425    45A     -0.439926

  @DF-RHF Final Energy:  -551.67459561035878

   => Energetics <=

    Nuclear Repulsion Energy =            713.2226641207008697
    One-Electron Energy =               -2149.4055581856546269
    Two-Electron Energy =                 884.5082984545950922
    DFT Exchange-Correlation Energy =       0.0000000000000000
    Empirical Dispersion Energy =           0.0000000000000000
    PCM Polarization Energy =               0.0000000000000000
    EFP Energy =                            0.0000000000000000
    Total Energy =                       -551.6745956103587787
  Basis Set: (AUG-CC-PVTZ AUX)
    Blend: AUG-CC-PVTZ-RI
    Molecular point group: c1

    Geometry (in Angstrom), charge = 1, multiplicity = 1:

       Center              X                  Y                   Z               Mass
    ------------   -----------------  -----------------  -----------------  -----------------
           C         -1.272510605442     0.717648207251    -0.578509884194    12.000000000000
           C         -0.279510605442     0.101648207251     1.535490115806    12.000000000000
           C         -2.350510605442     1.290648207251     0.094490115806    12.000000000000
           C         -1.357510605442     0.674648207251     2.209490115806    12.000000000000
           C          1.282489394558     0.034648207251    -1.788509884194    12.000000000000
           C          1.558489394558    -1.551351792749     0.002490115806    12.000000000000
           C          2.358489394558    -0.555351792749    -2.436509884194    12.000000000000
           C          2.628489394558    -2.101351792749    -0.690509884194    12.000000000000
           C         -0.236510605442     0.122648207251     0.141490115806    12.000000000000
           C          0.882489394558    -0.471351792749    -0.556509884194    12.000000000000
           C         -2.393510605442     1.269648207251     1.488490115806    12.000000000000
           N          2.992489394558    -1.594351792749    -1.875509884194    14.003074004780
           O         -3.445510605442     1.829648207251     2.145490115806    15.994914619560
           H         -1.253510605442     0.741648207251    -1.665509884194     1.007825032070
           H          0.520489394558    -0.358351792749     2.111490115806     1.007825032070
           H         -3.154510605442     1.752648207251    -0.472509884194     1.007825032070
           H         -1.385510605442     0.655648207251     3.295490115806     1.007825032070
           H          0.773489394558     0.876648207251    -2.248509884194     1.007825032070
           H          1.267489394558    -1.967351792749     0.962490115806     1.007825032070
           H          2.739489394558    -0.228351792749    -3.394509884194     1.007825032070
           H          3.210489394558    -2.939351792749    -0.332509884194     1.007825032070
           H          3.780489394558    -2.013351792749    -2.368509884194     1.007825032070
           H         -3.162510605442     2.165648207251     3.010490115806     1.007825032070

  Basis Set: AUG-CC-PVTZ
    Blend: AUG-CC-PVTZ
  Basis Set: (AUG-CC-PVTZ AUX)
    Blend: AUG-CC-PVTZ-JKFIT
  Basis Set: (AUG-CC-PVTZ AUX)
    Blend: AUG-CC-PVTZ-JKFIT
	 Reference Energy          =    -551.6745956103587787 [Eh]
	 Singles Energy            =      -0.0000000000000002 [Eh]
	 Same-Spin Energy          =      -0.5965474095714652 [Eh]
	 Opposite-Spin Energy      =      -1.8252779328132371 [Eh]
	 Correlation Energy        =      -2.4218253423847025 [Eh]
	 Total Energy              =    -554.0964209527435287 [Eh]

	 ================> DF-SCS-MP2 Energies <==================
	-----------------------------------------------------------
	 SCS Same-Spin Scale       =       0.3333333333333333 [-]
	 SCS Opposite-Spin Scale   =       1.2000000000000000 [-]
	 SCS Same-Spin Energy      =      -0.1988491365238217 [Eh]
	 SCS Opposite-Spin Energy  =      -2.1903335193758844 [Eh]
	 SCS Correlation Energy    =      -2.3891826558997060 [Eh]
	 SCS Total Energy          =    -554.0637782662585096 [Eh]
	-----------------------------------------------------------

  -Total Gradient:
     Atom            X                  Y                   Z
    ------   -----------------  -----------------  -----------------
       1        0.009292208902    -0.007964271259    -0.006000219497
       2        0.010315849808    -0.001335164695    -0.009107714844
       3        0.000325766939     0.002329407716     0.007304212604
       4       -0.011743557626     0.005490373245     0.005177737064
       5       -0.015459126512     0.009066049614     0.013658275921
       6       -0.019189784079     0.008531095461     0.008439009869
       7        0.008501847748    -0.010331226344     0.004659028801
       8        0.005553908908     0.003296038325    -0.013863621117
       9       -0.002455239894     0.001284976911     0.001250340113
      10        0.014265056390    -0.006962979873    -0.009239215571
      11       -0.001362990649    -0.003679161578    -0.011539008268
      12       -0.001737912620     0.000524893942     0.001441936501
      13       -0.004394147810    -0.003495830176     0.007995674312
      14        0.001780625490     0.001124708842    -0.006018249504
      15        0.003806733505    -0.004331996847     0.002739845777
      16       -0.002966095759     0.001988750587    -0.005204743369
      17        0.000654240815    -0.000549905781     0.004738652096
      18       -0.005051010507     0.004340324189    -0.002894010274
      19       -0.001573431779    -0.000711187589     0.007017377268
      20        0.001877694317    -0.000455189244    -0.002564412255
      21        0.002421240800    -0.001678311340    -0.000085198222
      22        0.005126562606    -0.002723348414    -0.003221665598
      23        0.002011561008     0.006241954316     0.005315968202

*** Psi4 exiting successfully. Buy a developer a beer!
