                               Psi4 1.1 release

  ==> Input File <==

--------------------------------------------------------------------------

memory 5 Gb

molecule phepyrFOH_neutral {
  symmetry C1
  0 1
  C      1.885   -1.036   -0.112
  C      0.807   -0.463   0.561
  C      3.825   -3.269   -0.988
  C      5.328   -1.753   0.119
  C      1.800   -1.079   2.676
  C      4.927   -3.802   -1.637
  C      6.363   -2.354   -0.579
  C      2.921   -1.631   0.608
  C      4.038   -2.225   -0.095
  C      0.764   -0.484   1.955
  C      2.878   -1.652   2.002
  N      6.195   -3.370   -1.455
  O      -0.289   0.076   2.612
  F      3.866   -2.220   2.709
  H      1.904   -1.012   -1.199
  H      0.002   -0.002   -0.006
  H      2.833   -3.663   -1.183
  H      5.532   -0.940   0.809
  H      1.772   -1.099   3.762
  H      4.814   -4.616   -2.345
  H      7.387   -2.023   -0.446
  H      -0.355   1.020   2.398
  units Angstrom
}

dih_string = "2 10 13 22 300"
set optking fixed_dihedral = $dih_string

optimize('MP2/aug-cc-PVTZ')
--------------------------------------------------------------------------

    Molecular point group: c1
  Charge       = 0
  Multiplicity = 1
  Basis Set: AUG-CC-PVTZ
    Blend: AUG-CC-PVTZ
  Basis Set: (AUG-CC-PVTZ AUX)
    Blend: AUG-CC-PVTZ-JKFIT
  @DF-RHF Final Energy:  -650.17058326772269
    Total Energy =                       -650.1705832677225771
  Basis Set: (AUG-CC-PVTZ AUX)
    Blend: AUG-CC-PVTZ-RI
    Molecular point group: c1
  Basis Set: AUG-CC-PVTZ
    Blend: AUG-CC-PVTZ
  Basis Set: (AUG-CC-PVTZ AUX)
    Blend: AUG-CC-PVTZ-JKFIT
  Basis Set: (AUG-CC-PVTZ AUX)
    Blend: AUG-CC-PVTZ-JKFIT
	 Reference Energy          =    -650.1705832677226908 [Eh]
	 Singles Energy            =      -0.0000000000000003 [Eh]
	 Same-Spin Energy          =      -0.6771769309103024 [Eh]
	 Opposite-Spin Energy      =      -2.0188534810062397 [Eh]
	 Correlation Energy        =      -2.6960304119165426 [Eh]
	 Total Energy              =    -652.8666136796392720 [Eh]
	 SCS Total Energy          =    -652.8189330885669506 [Eh]
  @DF-RHF Final Energy:  -650.17661455029270
    Total Energy =                       -650.1766145502926975
  @DF-RHF Final Energy:  -650.17818934653042
    Total Energy =                       -650.1781893465304165
  @DF-RHF Final Energy:  -650.17828230494604
    Total Energy =                       -650.1782823049459239
  @DF-RHF Final Energy:  -650.17824741778691
    Total Energy =                       -650.1782474177869062
  @DF-RHF Final Energy:  -650.17828889577515
    Total Energy =                       -650.1782888957752675
  @DF-RHF Final Energy:  -650.17836317657247
    Total Energy =                       -650.1783631765724749
  @DF-RHF Final Energy:  -650.17840330510171
    Total Energy =                       -650.1784033051017104
  @DF-RHF Final Energy:  -650.17837245127305
    Total Energy =                       -650.1783724512729350
  @DF-RHF Final Energy:  -650.17825884830961
    Total Energy =                       -650.1782588483097243
  @DF-RHF Final Energy:  -650.17828896756623
    Total Energy =                       -650.1782889675662318
  Charge       = 0
  Multiplicity = 1
  Basis Set: AUG-CC-PVTZ
    Blend: AUG-CC-PVTZ
  Basis Set: (AUG-CC-PVTZ AUX)
    Blend: AUG-CC-PVTZ-JKFIT

    Orbital Energies (a.u.)
    -----------------------

    Doubly Occupied:

       1A    -26.321449     2A    -20.600842     3A    -15.563037
       4A    -11.345041     5A    -11.321329     6A    -11.272841
       7A    -11.271694     8A    -11.269894     9A    -11.264039
      10A    -11.259727    11A    -11.247987    12A    -11.247815
      13A    -11.239541    14A    -11.237370    15A     -1.640582
      16A     -1.416409    17A     -1.259809    18A     -1.186542
      19A     -1.113302    20A     -1.044833    21A     -1.034906
      22A     -1.024323    23A     -0.890881    24A     -0.880447
      25A     -0.852032    26A     -0.831138    27A     -0.775522
      28A     -0.735304    29A     -0.726211    30A     -0.708125
      31A     -0.697575    32A     -0.665649    33A     -0.663657
      34A     -0.655330    35A     -0.631383    36A     -0.624712
      37A     -0.606706    38A     -0.596433    39A     -0.565199
      40A     -0.546906    41A     -0.545216    42A     -0.527697
      43A     -0.511317    44A     -0.501904    45A     -0.418936
      46A     -0.403837    47A     -0.360707    48A     -0.348808
      49A     -0.327090

  @DF-RHF Final Energy:  -650.17828028095391

   => Energetics <=

    Nuclear Repulsion Energy =            813.8833635644934930
    One-Electron Energy =               -2502.5592121028012116
    Two-Electron Energy =                1038.4975682573538052
    DFT Exchange-Correlation Energy =       0.0000000000000000
    Empirical Dispersion Energy =           0.0000000000000000
    PCM Polarization Energy =               0.0000000000000000
    EFP Energy =                            0.0000000000000000
    Total Energy =                       -650.1782802809539135
  Basis Set: (AUG-CC-PVTZ AUX)
    Blend: AUG-CC-PVTZ-RI
    Molecular point group: c1
  Basis Set: AUG-CC-PVTZ
    Blend: AUG-CC-PVTZ
  Basis Set: (AUG-CC-PVTZ AUX)
    Blend: AUG-CC-PVTZ-JKFIT
  Basis Set: (AUG-CC-PVTZ AUX)
    Blend: AUG-CC-PVTZ-JKFIT
	 Reference Energy          =    -650.1782802809539135 [Eh]
	 Singles Energy            =      -0.0000000000000004 [Eh]
	 Same-Spin Energy          =      -0.6766867925549948 [Eh]
	 Opposite-Spin Energy      =      -2.0170081135729587 [Eh]
	 Correlation Energy        =      -2.6936949061279538 [Eh]
	 Total Energy              =    -652.8719751870818300 [Eh]

	 ================> DF-SCS-MP2 Energies <==================
	-----------------------------------------------------------
	 SCS Same-Spin Scale       =       0.3333333333333333 [-]
	 SCS Opposite-Spin Scale   =       1.2000000000000000 [-]
	 SCS Same-Spin Energy      =      -0.2255622641849983 [Eh]
	 SCS Opposite-Spin Energy  =      -2.4204097362875503 [Eh]
	 SCS Correlation Energy    =      -2.6459720004725491 [Eh]
	 SCS Total Energy          =    -652.8242522814264248 [Eh]
	-----------------------------------------------------------

  -Total Gradient:
     Atom            X                  Y                   Z
    ------   -----------------  -----------------  -----------------
       1       -0.000007350571     0.000008226696    -0.000005840578
       2       -0.000747944311    -0.002026875745     0.000267831040
       3        0.000005945632    -0.000004284641    -0.000014713125
       4        0.000019722969     0.000000068045    -0.000021085691
       5       -0.000000018253     0.000003915331    -0.000009895372
       6       -0.000021133514    -0.000009759216    -0.000003461969
       7        0.000008021998     0.000010945723    -0.000000539515
       8        0.000001641668    -0.000010216938     0.000025028175
       9       -0.000012136837    -0.000001669340     0.000011634156
      10        0.001536805612     0.003380176590     0.000021976316
      11        0.000003467005    -0.000007750270    -0.000004696130
      12        0.000007313754     0.000004207097     0.000004485625
      13       -0.002544142901    -0.002483428410    -0.002184502557
      14       -0.000004312780     0.000007867710     0.000008448887
      15       -0.000002077860    -0.000001163963    -0.000000080221
      16       -0.000001901117    -0.000000376070    -0.000004795133
      17       -0.000003776210    -0.000001598896    -0.000001662285
      18       -0.000001785307     0.000000005329     0.000009597697
      19        0.000005465303    -0.000002143770     0.000003680327
      20       -0.000003621068    -0.000001598206    -0.000005005196
      21        0.000005875724     0.000000791635     0.000007446881
      22        0.001755941070     0.001134661304     0.001896148662

  **** Optimization is complete! (in 12 steps) ****
    Final optimized geometry and variables:
    Molecular point group: c1

    Geometry (in Angstrom), charge = 0, multiplicity = 1:

    C           -1.413090255507     0.558704201694    -0.747268992139
    C           -2.497247470005     1.126394877631    -0.100780990004
    C            0.624056048897    -1.363066350644    -1.815334947713
    C            2.168943157362    -0.195444604826    -0.444094217786
    C           -1.356455529207     0.877874219115     1.996420342946
    C            1.705392023238    -1.901889494963    -2.493244201133
    C            3.185015812746    -0.782490710485    -1.181012392036
    C           -0.280288179145     0.129827238396    -0.055048521938
    C            0.844277030133    -0.481152427880    -0.761271724148
    C           -2.459458708686     1.303562606613     1.275329178889
    C           -0.298050484440     0.305532896957     1.323223582400
    N            2.976774123005    -1.625932860425    -2.194796064040
    O           -3.532840349934     1.802474404070     1.971414782928
    F            0.749662834771    -0.118157362329     2.054429928589
    H           -1.432313851932     0.449325688038    -1.821172131091
    H           -3.368909761038     1.435453717251    -0.656540654485
    H           -0.380879506599    -1.643676131631    -2.092769980481
    H            2.407895292830     0.485215229753     0.356799303344
    H           -1.325414062246     0.985652592819     3.067982720812
    H            1.543935053273    -2.591119197843    -3.310286496355
    H            4.217204426230    -0.562839454275    -0.947144223939
    H           -3.741270199539     2.680501909754     1.639965348365

*** Psi4 exiting successfully. Buy a developer a beer!
