                               Psi4 1.1 release

  ==> Input File <==

--------------------------------------------------------------------------

memory 1000 mb

molecule butane {
  symmetry C1
  0 1
  H      2.945   1.419   -10.573
  H      3.176   3.015   -9.899
  H      4.559   2.055   -10.366
  C      3.574   2.022   -9.952
  H      4.260   2.020   -7.916
  H      2.646   1.384   -8.122
  C      3.631   1.416   -8.537
  H      3.665   -0.647   -7.940
  H      4.104   -0.384   -9.610
  C      4.203   -0.012   -8.612
  H      6.088   -0.983   -8.270
  H      5.791   0.381   -7.220
  H      6.230   0.644   -8.890
  C      5.691   0.009   -8.218
  units Angstrom
}

dih_string = "14 10 7 4 100"
set optking fixed_dihedral = $dih_string

optimize('MP2/aug-cc-pvtz')
--------------------------------------------------------------------------

    Molecular point group: c1
  Charge       = 0
  Multiplicity = 1
  Basis Set: AUG-CC-PVTZ
    Blend: AUG-CC-PVTZ
  Basis Set: (AUG-CC-PVTZ AUX)
    Blend: AUG-CC-PVTZ-JKFIT
  @DF-RHF Final Energy:  -157.34802796994535
    Total Energy =                       -157.3480279699453490
  Basis Set: (AUG-CC-PVTZ AUX)
    Blend: AUG-CC-PVTZ-RI
    Molecular point group: c1
  Basis Set: AUG-CC-PVTZ
    Blend: AUG-CC-PVTZ
  Basis Set: (AUG-CC-PVTZ AUX)
    Blend: AUG-CC-PVTZ-JKFIT
  Basis Set: (AUG-CC-PVTZ AUX)
    Blend: AUG-CC-PVTZ-JKFIT
	 Reference Energy          =    -157.3480279699453490 [Eh]
	 Singles Energy            =      -0.0000000000000000 [Eh]
	 Same-Spin Energy          =      -0.1656815130464174 [Eh]
	 Opposite-Spin Energy      =      -0.6396360291127282 [Eh]
	 Correlation Energy        =      -0.8053175421591456 [Eh]
	 Total Energy              =    -158.1533455121044938 [Eh]
	 SCS Total Energy          =    -158.1708183758960899 [Eh]
  @DF-RHF Final Energy:  -157.35064853184377
    Total Energy =                       -157.3506485318437740
  @DF-RHF Final Energy:  -157.35150410789717
    Total Energy =                       -157.3515041078971706
  @DF-RHF Final Energy:  -157.35179099840946
    Total Energy =                       -157.3517909984094558
  @DF-RHF Final Energy:  -157.35182825116539
    Total Energy =                       -157.3518282511653865
  @DF-RHF Final Energy:  -157.35182742292278
    Total Energy =                       -157.3518274229227814
  @DF-RHF Final Energy:  -157.35182079184216
    Total Energy =                       -157.3518207918421581
  Charge       = 0
  Multiplicity = 1
  Basis Set: AUG-CC-PVTZ
    Blend: AUG-CC-PVTZ
  Basis Set: (AUG-CC-PVTZ AUX)
    Blend: AUG-CC-PVTZ-JKFIT

    Orbital Energies (a.u.)
    -----------------------

    Doubly Occupied:

       1A    -11.211195     2A    -11.210595     3A    -11.206511
       4A    -11.206507     5A     -1.072775     6A     -0.979981
       7A     -0.865046     8A     -0.784567     9A     -0.628227
      10A     -0.612325    11A     -0.579115    12A     -0.543636
      13A     -0.517477    14A     -0.507204    15A     -0.467737
      16A     -0.455338    17A     -0.453692

  @DF-RHF Final Energy:  -157.35181908409041

   => Energetics <=

    Nuclear Repulsion Energy =            132.4511071145709593
    One-Electron Energy =                -473.0019962508143863
    Two-Electron Energy =                 183.1990700521530187
    DFT Exchange-Correlation Energy =       0.0000000000000000
    Empirical Dispersion Energy =           0.0000000000000000
    PCM Polarization Energy =               0.0000000000000000
    EFP Energy =                            0.0000000000000000
    Total Energy =                       -157.3518190840904083
  Basis Set: (AUG-CC-PVTZ AUX)
    Blend: AUG-CC-PVTZ-RI
    Molecular point group: c1
  Basis Set: AUG-CC-PVTZ
    Blend: AUG-CC-PVTZ
  Basis Set: (AUG-CC-PVTZ AUX)
    Blend: AUG-CC-PVTZ-JKFIT
  Basis Set: (AUG-CC-PVTZ AUX)
    Blend: AUG-CC-PVTZ-JKFIT
	 Reference Energy          =    -157.3518190840904083 [Eh]
	 Singles Energy            =      -0.0000000000000000 [Eh]
	 Same-Spin Energy          =      -0.1655538338286685 [Eh]
	 Opposite-Spin Energy      =      -0.6399886582808113 [Eh]
	 Correlation Energy        =      -0.8055424921094798 [Eh]
	 Total Energy              =    -158.1573615761998894 [Eh]

	 ================> DF-SCS-MP2 Energies <==================
	-----------------------------------------------------------
	 SCS Same-Spin Scale       =       0.3333333333333333 [-]
	 SCS Opposite-Spin Scale   =       1.2000000000000000 [-]
	 SCS Same-Spin Energy      =      -0.0551846112762228 [Eh]
	 SCS Opposite-Spin Energy  =      -0.7679863899369735 [Eh]
	 SCS Correlation Energy    =      -0.8231710012131963 [Eh]
	 SCS Total Energy          =    -158.1749900853035911 [Eh]
	-----------------------------------------------------------

  -Total Gradient:
     Atom            X                  Y                   Z
    ------   -----------------  -----------------  -----------------
       1        0.000005693600     0.000005834912     0.000009598794
       2        0.000002081838    -0.000009235648     0.000001091129
       3       -0.000014672294     0.000004284972     0.000002674045
       4       -0.002285640786    -0.000962409662    -0.000308159038
       5       -0.000009221231    -0.000002306934    -0.000001925786
       6        0.000003319564     0.000006793811    -0.000004707500
       7        0.002908612524     0.001215004685     0.001312182118
       8        0.000007994690    -0.000001949882    -0.000003291856
       9       -0.000001114219    -0.000002145150     0.000009575996
      10        0.000029164422     0.000070582261    -0.003413746849
      11       -0.000005679477     0.000008210578     0.000001247896
      12       -0.000004162995    -0.000005263977    -0.000010909663
      13       -0.000002456225    -0.000011581435     0.000009412453
      14       -0.000633919414    -0.000315818534     0.002396958259

  **** Optimization is complete! (in 8 steps) ****
    Final optimized geometry and variables:
    Molecular point group: c1

    Geometry (in Angstrom), charge = 0, multiplicity = 1:

    H           -1.399482303840     0.584776807836    -1.751133204499
    H           -1.108648059462     2.187016574546    -1.079909737181
    H            0.245417895914     1.184122628058    -1.586659200848
    C           -0.735882962674     1.165784576405    -1.114238896937
    H           -0.061742887178     1.179736025267     0.927624491923
    H           -1.660249475371     0.517733333107     0.696962724505
    C           -0.658314521472     0.546720661873     0.270198754630
    H           -0.608629118165    -1.510727189918     0.926017228366
    H           -0.183640051873    -1.287129395548    -0.752096011044
    C           -0.060691759868    -0.861399466290     0.244122714340
    H            1.837849928864    -1.867874429607     0.558290763126
    H            1.527561464598    -0.528725711030     1.659515843486
    H            1.984029379173    -0.208384598336    -0.008112835710
    C            1.406810382054    -0.872147818617     0.634309451969

*** Psi4 exiting successfully. Buy a developer a beer!
