                               Psi4 1.1 release

  ==> Input File <==

--------------------------------------------------------------------------

memory 5 Gb

molecule phepyrOH_neutral {
  symmetry C1
  0 1
  C      1.885   -1.036   -0.112
  C      2.878   -1.652   2.002
  C      0.807   -0.463   0.561
  C      1.800   -1.079   2.676
  C      3.862   -2.773   -1.356
  C      5.298   -2.250   0.501
  C      4.965   -3.329   -1.983
  C      6.337   -2.830   -0.209
  C      2.921   -1.631   0.608
  C      4.040   -2.225   -0.090
  C      0.764   -0.484   1.955
  N      6.202   -3.372   -1.440
  O      -0.288   0.076   2.612
  H      1.904   -1.012   -1.199
  H      3.678   -2.112   2.578
  H      0.003   -0.001   -0.006
  H      1.772   -1.098   3.762
  H      2.895   -2.771   -1.850
  H      5.475   -1.833   1.487
  H      4.879   -3.768   -2.972
  H      7.337   -2.875   0.209
  H      -0.175   -0.018   3.571
  units Angstrom
}

dih_string = "1 9 10 5 330"
set optking fixed_dihedral = $dih_string

optimize('MP2/aug-cc-PVTZ')
--------------------------------------------------------------------------

    Molecular point group: c1
  Charge       = 0
  Multiplicity = 1
  Basis Set: AUG-CC-PVTZ
    Blend: AUG-CC-PVTZ
  Basis Set: (AUG-CC-PVTZ AUX)
    Blend: AUG-CC-PVTZ-JKFIT
  @DF-RHF Final Energy:  -551.28548665367680
    Total Energy =                       -551.2854866536767986
  Basis Set: (AUG-CC-PVTZ AUX)
    Blend: AUG-CC-PVTZ-RI
    Molecular point group: c1
  Basis Set: AUG-CC-PVTZ
    Blend: AUG-CC-PVTZ
  Basis Set: (AUG-CC-PVTZ AUX)
    Blend: AUG-CC-PVTZ-JKFIT
  Basis Set: (AUG-CC-PVTZ AUX)
    Blend: AUG-CC-PVTZ-JKFIT
	 Reference Energy          =    -551.2854866536767986 [Eh]
	 Singles Energy            =      -0.0000000000000001 [Eh]
	 Same-Spin Energy          =      -0.6052540303096838 [Eh]
	 Opposite-Spin Energy      =      -1.8311136076449794 [Eh]
	 Correlation Energy        =      -2.4363676379546630 [Eh]
	 Total Energy              =    -553.7218542916314163 [Eh]
	 SCS Total Energy          =    -553.6845743262873611 [Eh]
  @DF-RHF Final Energy:  -551.29154905057385
    Total Energy =                       -551.2915490505738489
  @DF-RHF Final Energy:  -551.29296253228529
    Total Energy =                       -551.2929625322852871
  @DF-RHF Final Energy:  -551.29294868324564
    Total Energy =                       -551.2929486832456405
  @DF-RHF Final Energy:  -551.29292426339100
    Total Energy =                       -551.2929242633910007
  Charge       = 0
  Multiplicity = 1
  Basis Set: AUG-CC-PVTZ
    Blend: AUG-CC-PVTZ
  Basis Set: (AUG-CC-PVTZ AUX)
    Blend: AUG-CC-PVTZ-JKFIT

    Orbital Energies (a.u.)
    -----------------------

    Doubly Occupied:

       1A    -20.602763     2A    -15.559188     3A    -11.314158
       4A    -11.270835     5A    -11.270758     6A    -11.265119
       7A    -11.253575     8A    -11.251314     9A    -11.246479
      10A    -11.244191    11A    -11.237722    12A    -11.234750
      13A    -11.234564    14A     -1.420027    15A     -1.257009
      16A     -1.175781    17A     -1.105428    18A     -1.039634
      19A     -1.029879    20A     -1.013322    21A     -0.882675
      22A     -0.873141    23A     -0.843232    24A     -0.813132
      25A     -0.750267    26A     -0.726375    27A     -0.685852
      28A     -0.662869    29A     -0.654599    30A     -0.635624
      31A     -0.613839    32A     -0.607432    33A     -0.604352
      34A     -0.592135    35A     -0.581142    36A     -0.545366
      37A     -0.534622    38A     -0.524068    39A     -0.502190
      40A     -0.495662    41A     -0.416426    42A     -0.397843
      43A     -0.357055    44A     -0.347295    45A     -0.308752

  @DF-RHF Final Energy:  -551.29292912734934

   => Energetics <=

    Nuclear Repulsion Energy =            697.8441135481489255
    One-Electron Energy =               -2132.3092002028629395
    Two-Electron Energy =                 883.1721575273646749
    DFT Exchange-Correlation Energy =       0.0000000000000000
    Empirical Dispersion Energy =           0.0000000000000000
    PCM Polarization Energy =               0.0000000000000000
    EFP Energy =                            0.0000000000000000
    Total Energy =                       -551.2929291273493391
  Basis Set: (AUG-CC-PVTZ AUX)
    Blend: AUG-CC-PVTZ-RI
    Molecular point group: c1
  Basis Set: AUG-CC-PVTZ
    Blend: AUG-CC-PVTZ
  Basis Set: (AUG-CC-PVTZ AUX)
    Blend: AUG-CC-PVTZ-JKFIT
  Basis Set: (AUG-CC-PVTZ AUX)
    Blend: AUG-CC-PVTZ-JKFIT
	 Reference Energy          =    -551.2929291273493391 [Eh]
	 Singles Energy            =      -0.0000000000000002 [Eh]
	 Same-Spin Energy          =      -0.6041829124246604 [Eh]
	 Opposite-Spin Energy      =      -1.8285695812415419 [Eh]
	 Correlation Energy        =      -2.4327524936662024 [Eh]
	 Total Energy              =    -553.7256816210154966 [Eh]

	 ================> DF-SCS-MP2 Energies <==================
	-----------------------------------------------------------
	 SCS Same-Spin Scale       =       0.3333333333333333 [-]
	 SCS Opposite-Spin Scale   =       1.2000000000000000 [-]
	 SCS Same-Spin Energy      =      -0.2013943041415535 [Eh]
	 SCS Opposite-Spin Energy  =      -2.1942834974898502 [Eh]
	 SCS Correlation Energy    =      -2.3956778016314035 [Eh]
	 SCS Total Energy          =    -553.6886069289807892 [Eh]
	-----------------------------------------------------------

  -Total Gradient:
     Atom            X                  Y                   Z
    ------   -----------------  -----------------  -----------------
       1       -0.000403051748    -0.000847747328     0.000014955673
       2       -0.000022024295    -0.000002828858     0.000017255385
       3       -0.000038529713     0.000034227602     0.000056440629
       4        0.000041061676    -0.000027703075    -0.000033912551
       5        0.000214286294     0.000849076141    -0.000398522016
       6       -0.000008125254    -0.000006423467    -0.000002449953
       7        0.000002080828    -0.000077591706     0.000025615482
       8        0.000033563240     0.000053399683    -0.000054102719
       9        0.000772219892     0.001668443427    -0.000209479982
      10       -0.000542865572    -0.001670759085     0.000594355207
      11       -0.000014433970     0.000005721272    -0.000007420640
      12       -0.000030591988     0.000018096325     0.000025985060
      13        0.000001112482     0.000001094473     0.000000517638
      14       -0.000012964345     0.000001870395    -0.000000038713
      15        0.000001197105     0.000007257526    -0.000002099889
      16        0.000017907785    -0.000017810865    -0.000013256932
      17       -0.000005299325     0.000007246747    -0.000003787198
      18        0.000003290414     0.000007089621     0.000003044419
      19       -0.000005271548    -0.000008165361     0.000001210136
      20       -0.000000726309     0.000031950659    -0.000011484712
      21       -0.000009929418    -0.000022349075     0.000019039823
      22        0.000007093763    -0.000004095048    -0.000021864147

  **** Optimization is complete! (in 6 steps) ****
    Final optimized geometry and variables:
    Molecular point group: c1

    Geometry (in Angstrom), charge = 0, multiplicity = 1:

    C           -1.268271195321     0.727930359875    -0.550602856295
    C           -0.285499129570     0.103120095814     1.536116743658
    C           -2.340220399848     1.294719301586     0.114619703470
    C           -1.356440203092     0.665639869203     2.211166194450
    C            0.757539036989    -1.047786753608    -1.828288058633
    C            2.185707699304    -0.513629767737    -0.017449271559
    C            1.854722761996    -1.603645646855    -2.465970029348
    C            3.223893506702    -1.093552646641    -0.728110310011
    C           -0.219286271391     0.125079808405     0.144467288276
    C            0.905229528973    -0.483341860760    -0.563918230998
    C           -2.387619366505     1.265790652360     1.501363860375
    N            3.080909840719    -1.637140731817    -1.939049764239
    O           -3.467222094830     1.838111801513     2.101978019591
    H           -1.232719379702     0.783849828746    -1.628171655187
    H            0.492206774423    -0.387400078046     2.101941474890
    H           -3.142966868720     1.771256407470    -0.426080463052
    H           -1.393735376467     0.628824905901     3.291166584628
    H           -0.210228792504    -1.082447887003    -2.304938149976
    H            2.383092955987    -0.065500536350     0.944507017149
    H            1.742723427048    -2.048513676582    -3.444976057094
    H            4.220024493605    -1.115890639768    -0.308445193080
    H           -3.375708006898     1.754633523032     3.055931078507

*** Psi4 exiting successfully. Buy a developer a beer!
