                               Psi4 1.1 release

  ==> Input File <==

--------------------------------------------------------------------------

molecule phepyr {
  symmetry C1
  0 1
  C      1.885   -1.036   -0.112
  C      0.807   -0.463   0.561
  C      2.921   -1.631   0.608
  C      0.764   -0.484   1.955
  C      2.878   -1.652   2.002
  C      0.704   -1.732   4.778
  C      2.763   -0.491   4.860
  C      0.709   -1.726   6.164
  C      2.675   -0.541   6.242
  C      1.800   -1.079   2.676
  C      1.755   -1.101   4.122
  N      1.670   -1.145   6.915
  H      1.917   -1.021   -1.198
  H      -0.001   -0.002   0.000
  H      3.760   -2.079   0.084
  H      -0.084   -0.033   2.466
  H      3.693   -2.120   2.550
  H      -0.100   -2.219   4.236
  H      3.598   0.011   4.383
  H      -0.087   -2.207   6.723
  H      3.435   -0.080   6.864
  units Angstrom
}

dih_string = "4 10 11 6 60"
set optking fixed_dihedral = $dih_string

optimize('MP2/aug-cc-PVTZ')
--------------------------------------------------------------------------

    Molecular point group: c1
  Charge       = 0
  Multiplicity = 1
  Basis Set: AUG-CC-PVTZ
    Blend: AUG-CC-PVTZ
  Basis Set: (AUG-CC-PVTZ AUX)
    Blend: AUG-CC-PVTZ-JKFIT
  @DF-RHF Final Energy:  -476.39663000590224
    Total Energy =                       -476.3966300059022387
  Basis Set: (AUG-CC-PVTZ AUX)
    Blend: AUG-CC-PVTZ-RI
    Molecular point group: c1
  Basis Set: AUG-CC-PVTZ
    Blend: AUG-CC-PVTZ
  Basis Set: (AUG-CC-PVTZ AUX)
    Blend: AUG-CC-PVTZ-JKFIT
  Basis Set: (AUG-CC-PVTZ AUX)
    Blend: AUG-CC-PVTZ-JKFIT
	 Reference Energy          =    -476.3966300059022387 [Eh]
	 Singles Energy            =      -0.0000000000000003 [Eh]
	 Same-Spin Energy          =      -0.5345185224854914 [Eh]
	 Opposite-Spin Energy      =      -1.6424022518833994 [Eh]
	 Correlation Energy        =      -2.1769207743688912 [Eh]
	 Total Energy              =    -478.5735507802711481 [Eh]
	 SCS Total Energy          =    -478.5456855489908321 [Eh]
  @DF-RHF Final Energy:  -476.40120016425726
    Total Energy =                       -476.4012001642572613
    Molecular point group: c1
  Charge       = 0
  Multiplicity = 1
  Basis Set: AUG-CC-PVTZ
    Blend: AUG-CC-PVTZ
  Basis Set: (AUG-CC-PVTZ AUX)
    Blend: AUG-CC-PVTZ-JKFIT

    Orbital Energies (a.u.)
    -----------------------

    Doubly Occupied:

       1A    -15.562775     2A    -11.272713     3A    -11.272683
       4A    -11.264495     5A    -11.252145     6A    -11.243545
       7A    -11.243416     8A    -11.242430     9A    -11.242116
      10A    -11.240982    11A    -11.237418    12A    -11.237376
      13A     -1.259071    14A     -1.174904    15A     -1.107770
      16A     -1.035931    17A     -1.026459    18A     -1.018790
      19A     -0.880183    20A     -0.863356    21A     -0.834827
      22A     -0.808231    23A     -0.732299    24A     -0.687615
      25A     -0.671495    26A     -0.656965    27A     -0.634791
      28A     -0.633933    29A     -0.599794    30A     -0.596010
      31A     -0.582726    32A     -0.543727    33A     -0.525989
      34A     -0.510356    35A     -0.508920    36A     -0.501170
      37A     -0.417976    38A     -0.391877    39A     -0.351150
      40A     -0.345872    41A     -0.333688

  @DF-RHF Final Energy:  -476.40163473476815

   => Energetics <=

    Nuclear Repulsion Energy =            605.9350638607734254
    One-Electron Energy =               -1845.5774574277309057
    Two-Electron Energy =                 763.2407588321893854
    DFT Exchange-Correlation Energy =       0.0000000000000000
    Empirical Dispersion Energy =           0.0000000000000000
    PCM Polarization Energy =               0.0000000000000000
    EFP Energy =                            0.0000000000000000
    Total Energy =                       -476.4016347347680949
  Basis Set: (AUG-CC-PVTZ AUX)
    Blend: AUG-CC-PVTZ-RI
    Molecular point group: c1

    Geometry (in Angstrom), charge = 0, multiplicity = 1:

       Center              X                  Y                   Z               Mass
    ------------   -----------------  -----------------  -----------------  -----------------
           C          0.117319432677     0.056455694586    -3.543567326458    12.000000000000
           C         -0.970465145140     0.606832524857    -2.878946029552    12.000000000000
           C          1.153883595389    -0.514515353028    -2.817344054992    12.000000000000
           C         -1.023516779170     0.581595901418    -1.492883227346    12.000000000000
           C          1.101179158358    -0.537019880393    -1.431225878354    12.000000000000
           C         -1.076572673890    -0.614236506248     1.399478126955    12.000000000000
           C          0.980558204920     0.569251408771     1.464390951421    12.000000000000
           C         -1.064766520594    -0.612109455789     2.785448023931    12.000000000000
           C          0.907428485414     0.522171304344     2.847602709722    12.000000000000
           C          0.007448067889     0.001766979771    -0.757569104104    12.000000000000
           C         -0.036937234577    -0.002355174034     0.708581189826    12.000000000000
           N         -0.094952499454    -0.055002368202     3.515634015009    14.003074004780
           H          0.158897297709     0.075845648121    -4.621479242171     1.007825032070
           H         -1.773257136821     1.061084802165    -3.438955166076     1.007825032070
           H          2.001120641373    -0.943969967665    -3.329657329941     1.007825032070
           H         -1.863044913811     1.019876726755    -0.974255266256     1.007825032070
           H          1.904687170988    -0.984397030554    -0.865208869730     1.007825032070
           H         -1.881386028998    -1.091833365815     0.861729734484     1.007825032070
           H          1.813498173574     1.054308853232     0.978492641244     1.007825032070
           H         -1.863920796983    -1.086329426864     3.337842333653     1.007825032070
           H          1.684909103656     0.970975389764     3.450228335508     1.007825032070

  Basis Set: AUG-CC-PVTZ
    Blend: AUG-CC-PVTZ
  Basis Set: (AUG-CC-PVTZ AUX)
    Blend: AUG-CC-PVTZ-JKFIT
  Basis Set: (AUG-CC-PVTZ AUX)
    Blend: AUG-CC-PVTZ-JKFIT
	 Reference Energy          =    -476.4016347347681517 [Eh]
	 Singles Energy            =      -0.0000000000000002 [Eh]
	 Same-Spin Energy          =      -0.5338001158311614 [Eh]
	 Opposite-Spin Energy      =      -1.6403757786613729 [Eh]
	 Correlation Energy        =      -2.1741758944925342 [Eh]
	 Total Energy              =    -478.5758106292606726 [Eh]

	 ================> DF-SCS-MP2 Energies <==================
	-----------------------------------------------------------
	 SCS Same-Spin Scale       =       0.3333333333333333 [-]
	 SCS Opposite-Spin Scale   =       1.2000000000000000 [-]
	 SCS Same-Spin Energy      =      -0.1779333719437204 [Eh]
	 SCS Opposite-Spin Energy  =      -1.9684509343936474 [Eh]
	 SCS Correlation Energy    =      -2.1463843063373678 [Eh]
	 SCS Total Energy          =    -478.5480190411055332 [Eh]
	-----------------------------------------------------------

  -Total Gradient:
     Atom            X                  Y                   Z
    ------   -----------------  -----------------  -----------------
       1       -0.000007714420    -0.000100787269    -0.000100435773
       2       -0.000096543154     0.000116155746    -0.000091457783
       3        0.000116864066    -0.000033707264    -0.000157218178
       4        0.001477534172     0.002125604045     0.000555427259
       5       -0.000565683203    -0.000366834749     0.000348642024
       6        0.001372171034    -0.002273681620    -0.000144714126
       7       -0.000277394708     0.000513685171    -0.000011719326
       8       -0.000711328376    -0.000246649375    -0.000677250049
       9        0.000741894441     0.000264417287    -0.000656962692
      10       -0.001081309014    -0.003492224681    -0.001321563712
      11       -0.001366139470     0.003477783894     0.001342795371
      12       -0.000026755254     0.000063508220     0.000426167874
      13        0.000027338222     0.000032371763     0.000111061433
      14        0.000067007295    -0.000067864471     0.000118004801
      15       -0.000033888530    -0.000006358507     0.000065058715
      16        0.000030629293     0.000024515328    -0.000265483871
      17        0.000142653402     0.000084972007    -0.000228161598
      18        0.000121229222     0.000051054290     0.000186289728
      19       -0.000012594756    -0.000170172836     0.000158472632
      20        0.000122189299    -0.000046674817     0.000126098186
      21       -0.000040159564     0.000050887847     0.000216949089

*** Psi4 exiting successfully. Buy a developer a beer!
