                               Psi4 1.1 release

  ==> Input File <==

--------------------------------------------------------------------------

memory 5 Gb

molecule phepyrFOH_zwitterion {
  symmetry C1
  0 1
  C      1.885   -1.036   -0.112
  C      0.807   -0.463   0.561
  C      3.853   -2.769   -1.362
  C      5.298   -2.251   0.495
  C      1.800   -1.079   2.676
  C      4.942   -3.332   -2.012
  C      6.351   -2.827   -0.203
  C      2.921   -1.631   0.608
  C      4.038   -2.224   -0.095
  C      0.764   -0.484   1.955
  C      2.878   -1.652   2.002
  N      6.145   -3.344   -1.421
  O      -0.227   0.043   2.574
  F      3.866   -2.220   2.709
  H      1.904   -1.013   -1.200
  H      0.011   -0.007   -0.025
  H      2.881   -2.762   -1.846
  H      5.471   -1.833   1.482
  H      1.791   -1.109   3.764
  H      4.892   -3.777   -2.996
  H      7.361   -2.891   0.176
  H      6.932   -3.764   -1.916
  units Angstrom
}

dih_string = "1 8 9 3 330"
set optking fixed_dihedral = $dih_string

optimize('MP2/aug-cc-PVTZ')
--------------------------------------------------------------------------

    Molecular point group: c1
  Charge       = 0
  Multiplicity = 1
  Basis Set: AUG-CC-PVTZ
    Blend: AUG-CC-PVTZ
  Basis Set: (AUG-CC-PVTZ AUX)
    Blend: AUG-CC-PVTZ-JKFIT
  @DF-RHF Final Energy:  -650.10568797531357
    Total Energy =                       -650.1056879753136855
  Basis Set: (AUG-CC-PVTZ AUX)
    Blend: AUG-CC-PVTZ-RI
    Molecular point group: c1
  Basis Set: AUG-CC-PVTZ
    Blend: AUG-CC-PVTZ
  Basis Set: (AUG-CC-PVTZ AUX)
    Blend: AUG-CC-PVTZ-JKFIT
  Basis Set: (AUG-CC-PVTZ AUX)
    Blend: AUG-CC-PVTZ-JKFIT
	 Reference Energy          =    -650.1056879753135718 [Eh]
	 Singles Energy            =      -0.0000000000000001 [Eh]
	 Same-Spin Energy          =      -0.6794449739290701 [Eh]
	 Opposite-Spin Energy      =      -2.0278109818518377 [Eh]
	 Correlation Energy        =      -2.7072559557809077 [Eh]
	 Total Energy              =    -652.8129439310944235 [Eh]
	 SCS Total Energy          =    -652.7655428115120912 [Eh]
  @DF-RHF Final Energy:  -650.11723773121605
    Total Energy =                       -650.1172377312159369
  @DF-RHF Final Energy:  -650.12615768883063
    Total Energy =                       -650.1261576888305171
  @DF-RHF Final Energy:  -650.13211137157077
    Total Energy =                       -650.1321113715707725
  @DF-RHF Final Energy:  -650.13511198990034
    Total Energy =                       -650.1351119899004516
  @DF-RHF Final Energy:  -650.13633487720858
    Total Energy =                       -650.1363348772085828
  @DF-RHF Final Energy:  -650.13695364822559
    Total Energy =                       -650.1369536482256990
  @DF-RHF Final Energy:  -650.13727975394977
    Total Energy =                       -650.1372797539497697
  @DF-RHF Final Energy:  -650.13732766780345
    Total Energy =                       -650.1373276678034472
  @DF-RHF Final Energy:  -650.13731911221737
    Total Energy =                       -650.1373191122174831
  @DF-RHF Final Energy:  -650.13729527261160
    Total Energy =                       -650.1372952726114818
  @DF-RHF Final Energy:  -650.13729048653636
    Total Energy =                       -650.1372904865363580
  @DF-RHF Final Energy:  -650.13725013703993
    Total Energy =                       -650.1372501370399277
  @DF-RHF Final Energy:  -650.13724626199325
    Total Energy =                       -650.1372462619931412
  Charge       = 0
  Multiplicity = 1
  Basis Set: AUG-CC-PVTZ
    Blend: AUG-CC-PVTZ
  Basis Set: (AUG-CC-PVTZ AUX)
    Blend: AUG-CC-PVTZ-JKFIT

    Orbital Energies (a.u.)
    -----------------------

    Doubly Occupied:

       1A    -26.307392     2A    -20.480775     3A    -15.671123
       4A    -11.337532     5A    -11.335156     6A    -11.328504
       7A    -11.306535     8A    -11.286653     9A    -11.269636
      10A    -11.264489    11A    -11.244402    12A    -11.232049
      13A    -11.205478    14A    -11.203944    15A     -1.624115
      16A     -1.353533    17A     -1.316959    18A     -1.173311
      19A     -1.116412    20A     -1.095099    21A     -1.018595
      22A     -1.005759    23A     -0.914267    24A     -0.905015
      25A     -0.831533    26A     -0.821551    27A     -0.812595
      28A     -0.742965    29A     -0.719986    30A     -0.712035
      31A     -0.694061    32A     -0.677453    33A     -0.673474
      34A     -0.651284    35A     -0.630490    36A     -0.620031
      37A     -0.611936    38A     -0.598319    39A     -0.567845
      40A     -0.553317    41A     -0.530667    42A     -0.527466
      43A     -0.501412    44A     -0.479882    45A     -0.412029
      46A     -0.402647    47A     -0.378557    48A     -0.347708
      49A     -0.256744

  @DF-RHF Final Energy:  -650.13722971948926

   => Energetics <=

    Nuclear Repulsion Energy =            814.4724399141734921
    One-Electron Energy =               -2503.7139003820757353
    Two-Electron Energy =                1039.1042307484131015
    DFT Exchange-Correlation Energy =       0.0000000000000000
    Empirical Dispersion Energy =           0.0000000000000000
    PCM Polarization Energy =               0.0000000000000000
    EFP Energy =                            0.0000000000000000
    Total Energy =                       -650.1372297194891416
  Basis Set: (AUG-CC-PVTZ AUX)
    Blend: AUG-CC-PVTZ-RI
    Molecular point group: c1
  Basis Set: AUG-CC-PVTZ
    Blend: AUG-CC-PVTZ
  Basis Set: (AUG-CC-PVTZ AUX)
    Blend: AUG-CC-PVTZ-JKFIT
  Basis Set: (AUG-CC-PVTZ AUX)
    Blend: AUG-CC-PVTZ-JKFIT
	 Reference Energy          =    -650.1372297194892553 [Eh]
	 Singles Energy            =      -0.0000000000000002 [Eh]
	 Same-Spin Energy          =      -0.6727577301769302 [Eh]
	 Opposite-Spin Energy      =      -2.0231236831970292 [Eh]
	 Correlation Energy        =      -2.6958814133739595 [Eh]
	 Total Energy              =    -652.8331111328632232 [Eh]

	 ================> DF-SCS-MP2 Energies <==================
	-----------------------------------------------------------
	 SCS Same-Spin Scale       =       0.3333333333333333 [-]
	 SCS Opposite-Spin Scale   =       1.2000000000000000 [-]
	 SCS Same-Spin Energy      =      -0.2242525767256434 [Eh]
	 SCS Opposite-Spin Energy  =      -2.4277484198364347 [Eh]
	 SCS Correlation Energy    =      -2.6520009965620783 [Eh]
	 SCS Total Energy          =    -652.7892307160512928 [Eh]
	-----------------------------------------------------------

  -Total Gradient:
     Atom            X                  Y                   Z
    ------   -----------------  -----------------  -----------------
       1        0.002574069364     0.005152233220     0.000342406041
       2        0.000019491064     0.000079580501    -0.000038606017
       3       -0.001054670308    -0.005254048324     0.002176891478
       4        0.000005700069     0.000004984504     0.000031463593
       5       -0.000000623733     0.000034665601     0.000024878228
       6        0.000013029429    -0.000020921220     0.000007223521
       7        0.000008822993     0.000009685333    -0.000004940175
       8       -0.004433420345    -0.010564343059     0.000621495339
       9        0.002907326708     0.010667884788    -0.003162739454
      10       -0.000109322274    -0.000246885286     0.000048006440
      11        0.000062682431     0.000114276715    -0.000027769130
      12       -0.000001730357    -0.000009158831    -0.000024297133
      13        0.000028615914     0.000091030835     0.000001979918
      14       -0.000028164548    -0.000055218502     0.000009932995
      15       -0.000021032191    -0.000014822115     0.000008989028
      16       -0.000000398150     0.000000886398    -0.000005311161
      17        0.000015229756     0.000003171650    -0.000003273177
      18        0.000003466400    -0.000003556892    -0.000002889720
      19        0.000004240637     0.000012614773     0.000005313488
      20        0.000001170644     0.000001267292    -0.000006714181
      21        0.000002103771    -0.000001879865     0.000003418392
      22        0.000003412732    -0.000001447519    -0.000005458309

  **** Optimization is complete! (in 15 steps) ****
    Final optimized geometry and variables:
    Molecular point group: c1

    Geometry (in Angstrom), charge = 0, multiplicity = 1:

    C           -1.407576541468     0.674549949739    -0.748172775557
    C           -2.445599050421     1.292053037694    -0.133762911463
    C            0.658796994873    -0.943405943127    -2.040256095942
    C            2.096729582915    -0.546397735861    -0.161482466119
    C           -1.433117439699     0.791110323327     2.032153253178
    C            1.712537886930    -1.468335571812    -2.716184788192
    C            3.128012374951    -1.067100392110    -0.875989339489
    C           -0.318680646607     0.086214858076    -0.033808412375
    C            0.788617531910    -0.419874188159    -0.718454473756
    C           -2.540606584113     1.381108896499     1.311243425843
    C           -0.400998976451     0.216686295508     1.379078590937
    N            2.942837702578    -1.520405296588    -2.142989535273
    O           -3.492475745858     1.925467066784     1.886854248340
    F            0.586164434881    -0.346761711603     2.122020988913
    H           -1.369445425304     0.674574775313    -1.827682644229
    H           -3.229654902042     1.761284503778    -0.708200946042
    H           -0.303166300682    -0.963866654573    -2.524323842394
    H            2.303149813225    -0.193881080327     0.832246117561
    H           -1.450640484996     0.803948767810     3.109898904886
    H            1.623349441868    -1.884601136125    -3.705835337541
    H            4.128564415192    -1.137769216038    -0.482676328178
    H            3.714961668227    -1.916067700596    -2.650174143869

*** Psi4 exiting successfully. Buy a developer a beer!
