                               Psi4 1.1 release

  ==> Input File <==

--------------------------------------------------------------------------

memory 5000 mb

molecule butane {
  symmetry C1
  0 1
  H      2.043   1.023   -9.930
  H      1.603   0.760   -8.259
  H      1.745   2.387   -8.880
  C      2.142   1.395   -8.932
  H      4.169   2.051   -9.210
  H      3.731   1.788   -7.539
  C      3.631   1.416   -8.537
  H      3.665   -0.647   -7.940
  H      4.104   -0.384   -9.610
  C      4.203   -0.012   -8.612
  H      6.088   -0.983   -8.270
  H      5.791   0.381   -7.220
  H      6.230   0.644   -8.890
  C      5.691   0.009   -8.218
  units Angstrom
}

dih_string = "10 7 4 3 180.001"
set optking fixed_dihedral = $dih_string

optimize('MP2/aug-cc-pvtz')
--------------------------------------------------------------------------

    Molecular point group: c1
  Charge       = 0
  Multiplicity = 1
  Basis Set: AUG-CC-PVTZ
    Blend: AUG-CC-PVTZ
  Basis Set: (AUG-CC-PVTZ AUX)
    Blend: AUG-CC-PVTZ-JKFIT
  @DF-RHF Final Energy:  -157.35283107768032
    Total Energy =                       -157.3528310776803210
  Basis Set: (AUG-CC-PVTZ AUX)
    Blend: AUG-CC-PVTZ-RI
    Molecular point group: c1
  Basis Set: AUG-CC-PVTZ
    Blend: AUG-CC-PVTZ
  Basis Set: (AUG-CC-PVTZ AUX)
    Blend: AUG-CC-PVTZ-JKFIT
  Basis Set: (AUG-CC-PVTZ AUX)
    Blend: AUG-CC-PVTZ-JKFIT
	 Reference Energy          =    -157.3528310776803210 [Eh]
	 Singles Energy            =      -0.0000000000000000 [Eh]
	 Same-Spin Energy          =      -0.1653639585155575 [Eh]
	 Opposite-Spin Energy      =      -0.6386398222188890 [Eh]
	 Correlation Energy        =      -0.8040037807344466 [Eh]
	 Total Energy              =    -158.1568348584147543 [Eh]
	 SCS Total Energy          =    -158.1743201838481809 [Eh]
  @DF-RHF Final Energy:  -157.35544857375956
    Total Energy =                       -157.3554485737595598
  @DF-RHF Final Energy:  -157.35621645723160
    Total Energy =                       -157.3562164572315965
  @DF-RHF Final Energy:  -157.35641581145259
    Total Energy =                       -157.3564158114525924
  Charge       = 0
  Multiplicity = 1
  Basis Set: AUG-CC-PVTZ
    Blend: AUG-CC-PVTZ
  Basis Set: (AUG-CC-PVTZ AUX)
    Blend: AUG-CC-PVTZ-JKFIT

    Orbital Energies (a.u.)
    -----------------------

    Doubly Occupied:

       1A    -11.211381     2A    -11.210740     3A    -11.206064
       4A    -11.206057     5A     -1.074536     6A     -0.982303
       7A     -0.860894     8A     -0.787866     9A     -0.641284
      10A     -0.585826    11A     -0.577263    12A     -0.568052
      13A     -0.514574    14A     -0.494202    15A     -0.469827
      16A     -0.461416    17A     -0.456788

  @DF-RHF Final Energy:  -157.35640854918526

   => Energetics <=

    Nuclear Repulsion Energy =            131.5648256556480362
    One-Electron Energy =                -471.2243209514259092
    Two-Electron Energy =                 182.3030867465926406
    DFT Exchange-Correlation Energy =       0.0000000000000000
    Empirical Dispersion Energy =           0.0000000000000000
    PCM Polarization Energy =               0.0000000000000000
    EFP Energy =                            0.0000000000000000
    Total Energy =                       -157.3564085491852609
  Basis Set: (AUG-CC-PVTZ AUX)
    Blend: AUG-CC-PVTZ-RI
    Molecular point group: c1
  Basis Set: AUG-CC-PVTZ
    Blend: AUG-CC-PVTZ
  Basis Set: (AUG-CC-PVTZ AUX)
    Blend: AUG-CC-PVTZ-JKFIT
  Basis Set: (AUG-CC-PVTZ AUX)
    Blend: AUG-CC-PVTZ-JKFIT
	 Reference Energy          =    -157.3564085491852609 [Eh]
	 Singles Energy            =      -0.0000000000000000 [Eh]
	 Same-Spin Energy          =      -0.1654587521032852 [Eh]
	 Opposite-Spin Energy      =      -0.6391451876414173 [Eh]
	 Correlation Energy        =      -0.8046039397447025 [Eh]
	 Total Energy              =    -158.1610124889299698 [Eh]

	 ================> DF-SCS-MP2 Energies <==================
	-----------------------------------------------------------
	 SCS Same-Spin Scale       =       0.3333333333333333 [-]
	 SCS Opposite-Spin Scale   =       1.2000000000000000 [-]
	 SCS Same-Spin Energy      =      -0.0551529173677617 [Eh]
	 SCS Opposite-Spin Energy  =      -0.7669742251697007 [Eh]
	 SCS Correlation Energy    =      -0.8221271425374624 [Eh]
	 SCS Total Energy          =    -158.1785356917227148 [Eh]
	-----------------------------------------------------------

  -Total Gradient:
     Atom            X                  Y                   Z
    ------   -----------------  -----------------  -----------------
       1       -0.000015934062    -0.000014518432    -0.000045297877
       2       -0.000031969938    -0.000022926080     0.000023112824
       3       -0.000014986422     0.000044269077     0.000003108661
       4        0.000114489722    -0.000044037018     0.000026279550
       5        0.000007197754    -0.000006999400    -0.000023152342
       6       -0.000004007017    -0.000012597365     0.000022020264
       7        0.000003323798     0.000026337502     0.000004894781
       8       -0.000007901839     0.000005709489     0.000023864883
       9        0.000003773639     0.000012585912    -0.000023361642
      10       -0.000005285500    -0.000025004180    -0.000004891322
      11        0.000014067662    -0.000043755757    -0.000003038262
      12        0.000015120278     0.000014277822     0.000045063482
      13        0.000032424520     0.000024560209    -0.000024948964
      14       -0.000110312594     0.000042098222    -0.000023654034

  **** Optimization is complete! (in 5 steps) ****
    Final optimized geometry and variables:
    Molecular point group: c1

    Geometry (in Angstrom), charge = 0, multiplicity = 1:

    H           -1.907447299342     0.317707530960    -1.370154451099
    H           -2.348886137521     0.052713126688     0.310771861559
    H           -2.202157772371     1.692513973693    -0.311493493902
    C           -1.775349031008     0.693243447817    -0.356940683960
    H            0.247903304894     1.356360136385    -0.635317116583
    H           -0.191110589026     1.092801604143     1.036374828383
    C           -0.308232540615     0.692148878114     0.028179769052
    H           -0.247908852052    -1.356373142787     0.635298871707
    H            0.191120017422    -1.092789564550    -1.036389060940
    C            0.308231400837    -0.692149533287    -0.028185635607
    H            2.202160934851    -1.692510634061     0.311482283597
    H            1.907431377162    -0.317726825183     1.370169707357
    H            2.348882972118    -0.052690739041    -0.310753632390
    C            1.775351182295    -0.693243251730     0.356947407360

*** Psi4 exiting successfully. Buy a developer a beer!
