                              Psi4 1.0.0 Driver

  ==> Input File <==

--------------------------------------------------------------------------

memory 1000 mb

molecule butane {
  symmetry C1
  0 1
  H      1.604   0.760   -8.260
  H      1.745   2.388   -8.880
  H      2.043   1.024   -9.930
  C      2.142   1.395   -8.932
  H      4.169   2.051   -9.210
  H      3.731   1.788   -7.539
  C      3.631   1.416   -8.537
  H      5.006   -0.037   -9.318
  H      4.567   -0.302   -7.649
  C      4.203   -0.012   -8.612
  H      3.495   -1.978   -9.109
  H      2.733   -0.697   -10.020
  H      2.293   -0.961   -8.350
  C      3.097   -0.986   -9.057
  units Angstrom
}

dih_string = "4 7 10 14 360.01"
set optking fixed_dihedral = $dih_string

optimize('MP2/6-31G(d)')
--------------------------------------------------------------------------

    Molecular point group: c1
  Charge       = 0
  Multiplicity = 1
  Basis Set: 6-31G(D)
  Basis Set:
  @DF-RHF Final Energy:  -157.27142883594558
    Total Energy =                       -157.2714288359456134
  Basis Set:
    Molecular point group: c1
  Basis Set: 6-31G(D)
  Basis Set:
  Basis Set:
	 Reference Energy          =    -157.2714288359455850 [Eh]
	 Singles Energy            =      -0.0000000000000000 [Eh]
	 Same-Spin Energy          =      -0.1253702682146448 [Eh]
	 Opposite-Spin Energy      =      -0.4216681301043890 [Eh]
	 Correlation Energy        =      -0.5470383983190338 [Eh]
	 Total Energy              =    -157.8184672342646309 [Eh]
	 SCS Total Energy          =    -157.8192206814757412 [Eh]
  Basis Set: 6-31G(D)
  Basis Set:
  @DF-RHF Final Energy:  -157.28250300067680
    Total Energy =                       -157.2825030006767975
  Basis Set:
  Basis Set: 6-31G(D)
  Basis Set:
  @DF-RHF Final Energy:  -157.28589786377719
    Total Energy =                       -157.2858978637771088
  @DF-RHF Final Energy:  -157.28732447843484
    Total Energy =                       -157.2873244784347548
  @DF-RHF Final Energy:  -157.28791167466881
    Total Energy =                       -157.2879116746689192
  @DF-RHF Final Energy:  -157.28796111223699
    Total Energy =                       -157.2879611122368431
	 Singles Energy            =      -0.0000000000000000 [Eh]
	 Same-Spin Energy          =      -0.1242318795375113 [Eh]
	 Opposite-Spin Energy      =      -0.4226186614321653 [Eh]
	 Correlation Energy        =      -0.5468505409696766 [Eh]
	 Total Energy              =    -157.8348116532066570 [Eh]
	 SCS Total Energy          =    -157.8365141324680962 [Eh]
  Charge       = 0
  Multiplicity = 1
  Basis Set: 6-31G(D)
  Basis Set:

    Orbital Energies (a.u.)
    -----------------------

    Doubly Occupied:

       1A    -11.216303     2A    -11.215773     3A    -11.209535
       4A    -11.209521     5A     -1.064783     6A     -0.974224
       7A     -0.876461     8A     -0.767465     9A     -0.633280
      10A     -0.612367    11A     -0.563701    12A     -0.538041
      13A     -0.523951    14A     -0.512147    15A     -0.462514
      16A     -0.456828    17A     -0.443283

  @DF-RHF Final Energy:  -157.28797991637651

   => Energetics <=

    Nuclear Repulsion Energy =            132.6615729251982430
    One-Electron Energy =                -473.3387498746704409
    Two-Electron Energy =                 183.3891970330957975
    DFT Exchange-Correlation Energy =       0.0000000000000000
    Empirical Dispersion Energy =           0.0000000000000000
    PCM Polarization Energy =               0.0000000000000000
    EFP Energy =                            0.0000000000000000
    Total Energy =                       -157.2879799163764005
  Basis Set:
    Molecular point group: c1
  Basis Set: 6-31G(D)
  Basis Set:
  Basis Set:
	 Reference Energy          =    -157.2879799163765142 [Eh]
	 Singles Energy            =      -0.0000000000000000 [Eh]
	 Same-Spin Energy          =      -0.1242217494423571 [Eh]
	 Opposite-Spin Energy      =      -0.4226122760465524 [Eh]
	 Correlation Energy        =      -0.5468340254889095 [Eh]
	 Total Energy              =    -157.8348139418654341 [Eh]

	 ================> DF-SCS-MP2 Energies <==================
	-----------------------------------------------------------
	 SCS Same-Spin Scale       =       0.3333333333333333 [-]
	 SCS Opposite-Spin Scale   =       1.2000000000000000 [-]
	 SCS Same-Spin Energy      =      -0.0414072498141190 [Eh]
	 SCS Opposite-Spin Energy  =      -0.5071347312558629 [Eh]
	 SCS Correlation Energy    =      -0.5485419810699820 [Eh]
	 SCS Total Energy          =    -157.8365218974464881 [Eh]
	-----------------------------------------------------------

  -Total Gradient:
     Atom            X                  Y                   Z
    ------   -----------------  -----------------  -----------------
       1       -0.000043227183    -0.000037215774     0.000017984992
       2       -0.000040973921     0.000019833869    -0.000004396600
       3       -0.000031586862    -0.000024621992    -0.000038996195
       4        0.000215178209    -0.000069750295     0.000024233307
       5        0.000026533611     0.000038786579     0.000000054948
       6        0.000025529810     0.000036940989     0.000017667563
       7       -0.000101135903    -0.000093076623    -0.000017926962
       8        0.000046861819    -0.000008274082    -0.000000705262
       9        0.000042348837    -0.000012464691     0.000016794907
      10       -0.000131440950     0.000003197578    -0.000038766380
      11       -0.000015385143    -0.000041983885    -0.000008242019
      12       -0.000040731234    -0.000000999390    -0.000038295276
      13       -0.000053787715    -0.000003136181     0.000018732759
      14        0.000101816625     0.000192763902     0.000051860218

  **** Optimization is complete! (in 7 steps) ****
    Final optimized geometry and variables:
    Molecular point group: c1

    Geometry (in Angstrom), charge = 0, multiplicity = 1:

    H           -1.743353131436     0.550401712255     0.641804873778
    H           -1.436073552801     2.165423455748     0.004025350798
    H           -1.411044909385     0.774045625247    -1.078986615593
    C           -1.143014746764     1.114667769060    -0.075944992264
    H            0.891339848419     1.607341942779    -0.514171862525
    H            0.563565061591     1.386995350200     1.183825367572
    C            0.353501834128     0.968102854704     0.193986976348
    H            1.734268748769    -0.495580217214    -0.624149824282
    H            1.405940724500    -0.716105606439     1.073721643306
    C            0.929860219021    -0.470228624860     0.118589370562
    H            0.452329345610    -2.547086867168    -0.243156763506
    H           -0.526899773981    -1.431515904581    -1.195034802903
    H           -0.859876303355    -1.654631839809     0.525699750195
    C           -0.062257332407    -1.582247421014    -0.217615133856

*** Psi4 exiting successfully. Buy a developer a beer!
