                               Psi4 1.1 release

  ==> Input File <==

--------------------------------------------------------------------------

memory 5 Gb

molecule phepyrFOH_neutral {
  symmetry C1
  0 1
  C      1.885   -1.036   -0.112
  C      0.807   -0.463   0.561
  C      3.825   -3.269   -0.988
  C      5.328   -1.753   0.119
  C      1.800   -1.079   2.676
  C      4.927   -3.802   -1.637
  C      6.363   -2.354   -0.579
  C      2.921   -1.631   0.608
  C      4.038   -2.225   -0.095
  C      0.764   -0.484   1.955
  C      2.878   -1.652   2.002
  N      6.195   -3.370   -1.455
  O      -0.289   0.076   2.612
  F      3.866   -2.220   2.709
  H      1.904   -1.012   -1.199
  H      0.002   -0.002   -0.006
  H      2.833   -3.663   -1.183
  H      5.532   -0.940   0.809
  H      1.772   -1.099   3.762
  H      4.814   -4.616   -2.345
  H      7.387   -2.023   -0.446
  H      -0.743   -0.592   3.151
  units Angstrom
}

dih_string = "2 10 13 22 120"
set optking fixed_dihedral = $dih_string

optimize('MP2/aug-cc-PVTZ')
--------------------------------------------------------------------------

    Molecular point group: c1
  Charge       = 0
  Multiplicity = 1
  Basis Set: AUG-CC-PVTZ
    Blend: AUG-CC-PVTZ
  Basis Set: (AUG-CC-PVTZ AUX)
    Blend: AUG-CC-PVTZ-JKFIT
  @DF-RHF Final Energy:  -650.17060686292905
    Total Energy =                       -650.1706068629291622
  Basis Set: (AUG-CC-PVTZ AUX)
    Blend: AUG-CC-PVTZ-RI
    Molecular point group: c1
  Basis Set: AUG-CC-PVTZ
    Blend: AUG-CC-PVTZ
  Basis Set: (AUG-CC-PVTZ AUX)
    Blend: AUG-CC-PVTZ-JKFIT
  Basis Set: (AUG-CC-PVTZ AUX)
    Blend: AUG-CC-PVTZ-JKFIT
	 Reference Energy          =    -650.1706068629290485 [Eh]
	 Singles Energy            =      -0.0000000000000002 [Eh]
	 Same-Spin Energy          =      -0.6771856398469384 [Eh]
	 Opposite-Spin Energy      =      -2.0189091410399693 [Eh]
	 Correlation Energy        =      -2.6960947808869076 [Eh]
	 Total Energy              =    -652.8667016438159862 [Eh]
	 SCS Total Energy          =    -652.8190263787926142 [Eh]
  @DF-RHF Final Energy:  -650.17661888462578
    Total Energy =                       -650.1766188846256682
    Molecular point group: c1
  Charge       = 0
  Multiplicity = 1
  Basis Set: AUG-CC-PVTZ
    Blend: AUG-CC-PVTZ
  Basis Set: (AUG-CC-PVTZ AUX)
    Blend: AUG-CC-PVTZ-JKFIT

    Orbital Energies (a.u.)
    -----------------------

    Doubly Occupied:

       1A    -26.322114     2A    -20.598535     3A    -15.564272
       4A    -11.344287     5A    -11.319496     6A    -11.273817
       7A    -11.272845     8A    -11.268913     9A    -11.261879
      10A    -11.257932    11A    -11.250325    12A    -11.243777
      13A    -11.240314    14A    -11.238753    15A     -1.641916
      16A     -1.414831    17A     -1.260325    18A     -1.185432
      19A     -1.112741    20A     -1.043410    21A     -1.036053
      22A     -1.023763    23A     -0.890402    24A     -0.876179
      25A     -0.856530    26A     -0.828453    27A     -0.771044
      28A     -0.739479    29A     -0.728827    30A     -0.709622
      31A     -0.697847    32A     -0.667520    33A     -0.663275
      34A     -0.645228    35A     -0.635601    36A     -0.629085
      37A     -0.605543    38A     -0.598895    39A     -0.563859
      40A     -0.542079    41A     -0.539492    42A     -0.528820
      43A     -0.514433    44A     -0.499363    45A     -0.419409
      46A     -0.394868    47A     -0.360211    48A     -0.349363
      49A     -0.334149

  @DF-RHF Final Energy:  -650.17807582990872

   => Energetics <=

    Nuclear Repulsion Energy =            813.8916071065617643
    One-Electron Energy =               -2502.6087638121043710
    Two-Electron Energy =                1038.5390808756337719
    DFT Exchange-Correlation Energy =       0.0000000000000000
    Empirical Dispersion Energy =           0.0000000000000000
    PCM Polarization Energy =               0.0000000000000000
    EFP Energy =                            0.0000000000000000
    Total Energy =                       -650.1780758299087211
  Basis Set: (AUG-CC-PVTZ AUX)
    Blend: AUG-CC-PVTZ-RI
    Molecular point group: c1

    Geometry (in Angstrom), charge = 0, multiplicity = 1:

       Center              X                  Y                   Z               Mass
    ------------   -----------------  -----------------  -----------------  -----------------
           C         -1.346451162297     0.738104391228    -0.766400691272    12.000000000000
           C         -2.426310643386     1.300625513653    -0.103619599887    12.000000000000
           C          0.657553199939    -1.464629978317    -1.698692488860    12.000000000000
           C          2.151869562961    -0.006448571013    -0.563574093622    12.000000000000
           C         -1.409555623880     0.736339380537     1.998950937161    12.000000000000
           C          1.755571760290    -1.998812994847    -2.354832252528    12.000000000000
           C          3.186632863892    -0.602784986381    -1.265923737713    12.000000000000
           C         -0.286107191053     0.161140260096    -0.073537333462    12.000000000000
           C          0.849583062823    -0.441192609511    -0.778936280080    12.000000000000
           C         -2.455198631090     1.300324453191     1.281581417467    12.000000000000
           C         -0.351788238351     0.177957784322     1.312714016546    12.000000000000
           N          3.009335715245    -1.586412594668    -2.152739155833    14.003074004780
           O         -3.516365569656     1.885674886539     1.926767989724    15.994914619560
           F          0.646836268696    -0.372394824568     2.020855277221    18.998403224000
           H         -1.320730293178     0.741576107797    -1.845572164200     1.007825032070
           H         -3.242116348176     1.745338864952    -0.650475412059     1.007825032070
           H         -0.333923391407    -1.841363960581    -1.899873483995     1.007825032070
           H          2.356116007671     0.786360658107     0.139241216010     1.007825032070
           H         -1.415279178631     0.734220683745     3.077531995929     1.007825032070
           H          1.627433117277    -2.796855253035    -3.073009267895     1.007825032070
           H          4.206553865699    -0.278025823639    -1.114867098427     1.007825032070
           H         -3.956219504572     1.227136800712     2.470384598315     1.007825032070

  Basis Set: AUG-CC-PVTZ
    Blend: AUG-CC-PVTZ
  Basis Set: (AUG-CC-PVTZ AUX)
    Blend: AUG-CC-PVTZ-JKFIT
  Basis Set: (AUG-CC-PVTZ AUX)
    Blend: AUG-CC-PVTZ-JKFIT
	 Reference Energy          =    -650.1780758299087211 [Eh]
	 Singles Energy            =      -0.0000000000000005 [Eh]
	 Same-Spin Energy          =      -0.6761473227801521 [Eh]
	 Opposite-Spin Energy      =      -2.0162953146406970 [Eh]
	 Correlation Energy        =      -2.6924426374208497 [Eh]
	 Total Energy              =    -652.8705184673295889 [Eh]

	 ================> DF-SCS-MP2 Energies <==================
	-----------------------------------------------------------
	 SCS Same-Spin Scale       =       0.3333333333333333 [-]
	 SCS Opposite-Spin Scale   =       1.2000000000000000 [-]
	 SCS Same-Spin Energy      =      -0.2253824409267174 [Eh]
	 SCS Opposite-Spin Energy  =      -2.4195543775688364 [Eh]
	 SCS Correlation Energy    =      -2.6449368184955544 [Eh]
	 SCS Total Energy          =    -652.8230126484043012 [Eh]
	-----------------------------------------------------------

  -Total Gradient:
     Atom            X                  Y                   Z
    ------   -----------------  -----------------  -----------------
       1        0.002064594863     0.000273080155    -0.000991560225
       2       -0.001272120376    -0.001410532073     0.001086241336
       3       -0.000145439630    -0.000932836540     0.001501085840
       4       -0.000486935637     0.001102870320    -0.000627404006
       5        0.000337148215    -0.000208417698    -0.001148280103
       6       -0.001091391500    -0.000106421561     0.000306443256
       7       -0.000191257270     0.000763976598     0.000805240520
       8       -0.002753799913     0.001091567365     0.001043374356
       9        0.001481595772    -0.000693374928    -0.001594653347
      10        0.000367842391     0.004043553508    -0.000181295360
      11        0.001899269208    -0.002654606146     0.001931903635
      12        0.000490250400    -0.000295544282    -0.000378965831
      13        0.001805574965    -0.001583162095     0.002479738078
      14       -0.001313263550     0.000919422700    -0.001017578981
      15       -0.000553566708     0.000086635764     0.000169917258
      16        0.000219173713    -0.000032590078    -0.000477401115
      17        0.000177393303     0.000102120316    -0.000439428626
      18        0.000185287077     0.000023573592    -0.000129017532
      19       -0.000321427129    -0.000017084234     0.000222876668
      20        0.000310857444    -0.000115634635    -0.000178741283
      21        0.000200034285    -0.000198952724    -0.000167668874
      22       -0.001409819914    -0.000157643328    -0.002214825646

*** Psi4 exiting successfully. Buy a developer a beer!
