                               Psi4 1.1 release

  ==> Input File <==

--------------------------------------------------------------------------

memory 5 Gb

molecule phepyrFOH_neutral {
  symmetry C1
  0 1
  C      1.885   -1.036   -0.112
  C      0.807   -0.463   0.561
  C      3.855   -2.771   -1.361
  C      5.298   -2.250   0.492
  C      1.800   -1.079   2.676
  C      4.956   -3.326   -1.992
  C      6.334   -2.829   -0.222
  C      2.921   -1.631   0.608
  C      4.038   -2.225   -0.095
  C      0.764   -0.484   1.955
  C      2.878   -1.652   2.002
  N      6.196   -3.369   -1.454
  O      -0.289   0.076   2.612
  F      3.866   -2.220   2.709
  H      1.904   -1.012   -1.199
  H      0.002   -0.002   -0.006
  H      2.887   -2.768   -1.852
  H      5.478   -1.835   1.479
  H      1.772   -1.099   3.762
  H      4.867   -3.763   -2.981
  H      7.336   -2.875   0.192
  H      -0.175   -0.018   3.571
  units Angstrom
}

dih_string = "1 8 9 3 330"
set optking fixed_dihedral = $dih_string

optimize('MP2/aug-cc-PVTZ')
--------------------------------------------------------------------------

    Molecular point group: c1
  Charge       = 0
  Multiplicity = 1
  Basis Set: AUG-CC-PVTZ
    Blend: AUG-CC-PVTZ
  Basis Set: (AUG-CC-PVTZ AUX)
    Blend: AUG-CC-PVTZ-JKFIT
  @DF-RHF Final Energy:  -650.16930680716257
    Total Energy =                       -650.1693068071626840
  Basis Set: (AUG-CC-PVTZ AUX)
    Blend: AUG-CC-PVTZ-RI
    Molecular point group: c1
  Basis Set: AUG-CC-PVTZ
    Blend: AUG-CC-PVTZ
  Basis Set: (AUG-CC-PVTZ AUX)
    Blend: AUG-CC-PVTZ-JKFIT
  Basis Set: (AUG-CC-PVTZ AUX)
    Blend: AUG-CC-PVTZ-JKFIT
	 Reference Energy          =    -650.1693068071625703 [Eh]
	 Singles Energy            =      -0.0000000000000001 [Eh]
	 Same-Spin Energy          =      -0.6787378837133332 [Eh]
	 Opposite-Spin Energy      =      -2.0208231357623214 [Eh]
	 Correlation Energy        =      -2.6995610194756545 [Eh]
	 Total Energy              =    -652.8688678266382794 [Eh]
	 SCS Total Energy          =    -652.8205405313151459 [Eh]
  @DF-RHF Final Energy:  -650.17643321551293
    Total Energy =                       -650.1764332155130433
  @DF-RHF Final Energy:  -650.17948017096819
    Total Energy =                       -650.1794801709681906
  @DF-RHF Final Energy:  -650.18042522088786
    Total Energy =                       -650.1804252208878552
  @DF-RHF Final Energy:  -650.18081583857588
    Total Energy =                       -650.1808158385758816
  @DF-RHF Final Energy:  -650.18104499094500
    Total Energy =                       -650.1810449909448835
  @DF-RHF Final Energy:  -650.18114300060802
    Total Energy =                       -650.1811430006080172
  Charge       = 0
  Multiplicity = 1
  Basis Set: AUG-CC-PVTZ
    Blend: AUG-CC-PVTZ
  Basis Set: (AUG-CC-PVTZ AUX)
    Blend: AUG-CC-PVTZ-JKFIT

    Orbital Energies (a.u.)
    -----------------------

    Doubly Occupied:

       1A    -26.324576     2A    -20.612823     3A    -15.560815
       4A    -11.349106     5A    -11.328787     6A    -11.271122
       7A    -11.269901     8A    -11.269585     9A    -11.263896
      10A    -11.256674    11A    -11.252012    12A    -11.242390
      13A    -11.237425    14A    -11.234804    15A     -1.643465
      16A     -1.430738    17A     -1.257977    18A     -1.186622
      19A     -1.112643    20A     -1.045784    21A     -1.033104
      22A     -1.025327    23A     -0.895872    24A     -0.880708
      25A     -0.852816    26A     -0.829981    27A     -0.775171
      28A     -0.749331    29A     -0.726451    30A     -0.711362
      31A     -0.697075    32A     -0.669720    33A     -0.660881
      34A     -0.639050    35A     -0.635839    36A     -0.617341
      37A     -0.613022    38A     -0.594486    39A     -0.582464
      40A     -0.549078    41A     -0.544824    42A     -0.539043
      43A     -0.514442    44A     -0.501787    45A     -0.417361
      46A     -0.403092    47A     -0.362885    48A     -0.347180
      49A     -0.317766

  @DF-RHF Final Energy:  -650.18118580883061

   => Energetics <=

    Nuclear Repulsion Energy =            814.0190373230947216
    One-Electron Energy =               -2502.7232455652579119
    Two-Electron Energy =                1038.5230224333324713
    DFT Exchange-Correlation Energy =       0.0000000000000000
    Empirical Dispersion Energy =           0.0000000000000000
    PCM Polarization Energy =               0.0000000000000000
    EFP Energy =                            0.0000000000000000
    Total Energy =                       -650.1811858088306053
  Basis Set: (AUG-CC-PVTZ AUX)
    Blend: AUG-CC-PVTZ-RI
    Molecular point group: c1
  Basis Set: AUG-CC-PVTZ
    Blend: AUG-CC-PVTZ
  Basis Set: (AUG-CC-PVTZ AUX)
    Blend: AUG-CC-PVTZ-JKFIT
  Basis Set: (AUG-CC-PVTZ AUX)
    Blend: AUG-CC-PVTZ-JKFIT
	 Reference Energy          =    -650.1811858088306053 [Eh]
	 Singles Energy            =      -0.0000000000000001 [Eh]
	 Same-Spin Energy          =      -0.6770672103385101 [Eh]
	 Opposite-Spin Energy      =      -2.0174080269972667 [Eh]
	 Correlation Energy        =      -2.6944752373357770 [Eh]
	 Total Energy              =    -652.8756610461663286 [Eh]

	 ================> DF-SCS-MP2 Energies <==================
	-----------------------------------------------------------
	 SCS Same-Spin Scale       =       0.3333333333333333 [-]
	 SCS Opposite-Spin Scale   =       1.2000000000000000 [-]
	 SCS Same-Spin Energy      =      -0.2256890701128367 [Eh]
	 SCS Opposite-Spin Energy  =      -2.4208896323967202 [Eh]
	 SCS Correlation Energy    =      -2.6465787025095571 [Eh]
	 SCS Total Energy          =    -652.8277645113402059 [Eh]
	-----------------------------------------------------------

  -Total Gradient:
     Atom            X                  Y                   Z
    ------   -----------------  -----------------  -----------------
       1       -0.000899145422    -0.001459345433    -0.000061717518
       2        0.000018577876    -0.000046727650    -0.000031327265
       3        0.000413898581     0.001538182749    -0.000789362264
       4       -0.000001285103    -0.000002500868    -0.000001497798
       5       -0.000019294788     0.000040960892     0.000050405613
       6       -0.000062764915    -0.000091521406     0.000050461218
       7        0.000005764740     0.000024180407    -0.000027665147
       8        0.001545540028     0.002965321844    -0.000297786867
       9       -0.001019818021    -0.002986389798     0.001127737333
      10        0.000021327348     0.000029649582     0.000028221882
      11       -0.000163064187    -0.000048054274    -0.000115831347
      12        0.000033790305     0.000042292096    -0.000009381080
      13       -0.000003352550    -0.000003768115    -0.000013027188
      14        0.000101878345    -0.000002794572     0.000063856555
      15        0.000009132773    -0.000005900854     0.000010128887
      16       -0.000006057721     0.000008427864     0.000015004838
      17        0.000005292715     0.000010907046     0.000006996614
      18       -0.000006784798    -0.000000084905    -0.000001203941
      19        0.000019833352    -0.000012108052    -0.000006220436
      20        0.000009211862     0.000021521708    -0.000010623872
      21       -0.000005236875    -0.000022147312     0.000014740592
      22        0.000002556444    -0.000000100948    -0.000001908805

  **** Optimization is complete! (in 8 steps) ****
    Final optimized geometry and variables:
    Molecular point group: c1

    Geometry (in Angstrom), charge = 0, multiplicity = 1:

    C           -1.294633052952     0.778620649233    -0.743166115480
    C           -2.379413200002     1.350830361239    -0.107991178123
    C            0.684234003824    -1.014811508350    -2.016098878411
    C            2.165380500357    -0.470504270940    -0.247971753923
    C           -1.450002203073     0.709198799540     2.006493582939
    C            1.765440816365    -1.552038026708    -2.694403115380
    C            3.184798959748    -1.029384192733    -1.002015479480
    C           -0.250852674126     0.165094882129    -0.045010553260
    C            0.867120161990    -0.455615717358    -0.753171689311
    C           -2.459313480062     1.317825812700     1.277094885755
    C           -0.379962198043     0.151057503309     1.337896260703
    N            3.009401031607    -1.568597597588    -2.210390298059
    O           -3.542994874384     1.895573720263     1.859251102636
    F            0.555198592921    -0.460959370504     2.090669911818
    H           -1.231038975576     0.835175853227    -1.818946084498
    H           -3.164005436240     1.831634246837    -0.669563335277
    H           -0.298454752128    -1.060017340480    -2.459946554700
    H            2.388661976898    -0.037808646875     0.712732782875
    H           -1.480145783012     0.649855562911     3.083808633998
    H            1.625549067169    -1.992658427289    -3.671665662873
    H            4.194526460683    -1.040371039618    -0.616251123435
    H           -3.476238731154     1.806275606007     2.814806938901

*** Psi4 exiting successfully. Buy a developer a beer!
