                               Psi4 1.1 release

  ==> Input File <==

--------------------------------------------------------------------------

memory 1000 mb

molecule butane {
  symmetry C1
  0 1
  H      5.266   2.180   -7.372
  H      3.802   3.126   -7.246
  H      3.927   1.594   -6.416
  C      4.200   2.134   -7.298
  H      2.564   1.369   -8.463
  H      3.903   1.956   -9.419
  C      3.631   1.416   -8.537
  H      3.665   -0.647   -7.940
  H      4.104   -0.384   -9.610
  C      4.203   -0.012   -8.612
  H      6.088   -0.983   -8.270
  H      5.791   0.381   -7.220
  H      6.230   0.644   -8.890
  C      5.691   0.009   -8.218
  units Angstrom
}

dih_string = "14 10 7 4 320"
set optking fixed_dihedral = $dih_string

optimize('MP2/aug-cc-pvtz')
--------------------------------------------------------------------------

    Molecular point group: c1
  Charge       = 0
  Multiplicity = 1
  Basis Set: AUG-CC-PVTZ
    Blend: AUG-CC-PVTZ
  Basis Set: (AUG-CC-PVTZ AUX)
    Blend: AUG-CC-PVTZ-JKFIT
  @DF-RHF Final Energy:  -157.34311097372020
    Total Energy =                       -157.3431109737202007
  Basis Set: (AUG-CC-PVTZ AUX)
    Blend: AUG-CC-PVTZ-RI
    Molecular point group: c1
  Basis Set: AUG-CC-PVTZ
    Blend: AUG-CC-PVTZ
  Basis Set: (AUG-CC-PVTZ AUX)
    Blend: AUG-CC-PVTZ-JKFIT
  Basis Set: (AUG-CC-PVTZ AUX)
    Blend: AUG-CC-PVTZ-JKFIT
	 Reference Energy          =    -157.3431109737202007 [Eh]
	 Singles Energy            =      -0.0000000000000001 [Eh]
	 Same-Spin Energy          =      -0.1669662565254815 [Eh]
	 Opposite-Spin Energy      =      -0.6410222302510539 [Eh]
	 Correlation Energy        =      -0.8079884867765356 [Eh]
	 Total Energy              =    -158.1510994604967379 [Eh]
	 SCS Total Energy          =    -158.1679930688632965 [Eh]
  @DF-RHF Final Energy:  -157.34930640995628
    Total Energy =                       -157.3493064099562844
  @DF-RHF Final Energy:  -157.35105836740956
    Total Energy =                       -157.3510583674095642
  @DF-RHF Final Energy:  -157.35191678319271
    Total Energy =                       -157.3519167831927064
  @DF-RHF Final Energy:  -157.35220996638333
    Total Energy =                       -157.3522099663833274
  @DF-RHF Final Energy:  -157.35227080506564
    Total Energy =                       -157.3522708050656433
  @DF-RHF Final Energy:  -157.35230092217211
    Total Energy =                       -157.3523009221721054
  @DF-RHF Final Energy:  -157.35229847926348
    Total Energy =                       -157.3522984792634816
  @DF-RHF Final Energy:  -157.35229571559219
    Total Energy =                       -157.3522957155921915
  @DF-RHF Final Energy:  -157.35229323478262
    Total Energy =                       -157.3522932347826213
  @DF-RHF Final Energy:  -157.35228972155238
    Total Energy =                       -157.3522897215523813
  @DF-RHF Final Energy:  -157.35215873579969
    Total Energy =                       -157.3521587357996907
  @DF-RHF Final Energy:  -157.35227883634948
    Total Energy =                       -157.3522788363494840
  @DF-RHF Final Energy:  -157.35227362465014
    Total Energy =                       -157.3522736246501381
  @DF-RHF Final Energy:  -157.35226640150046
    Total Energy =                       -157.3522664015004580
  @DF-RHF Final Energy:  -157.35226564180780
    Total Energy =                       -157.3522656418078043
  Charge       = 0
  Multiplicity = 1
  Basis Set: AUG-CC-PVTZ
    Blend: AUG-CC-PVTZ
  Basis Set: (AUG-CC-PVTZ AUX)
    Blend: AUG-CC-PVTZ-JKFIT

    Orbital Energies (a.u.)
    -----------------------

    Doubly Occupied:

       1A    -11.211762     2A    -11.211150     3A    -11.205407
       4A    -11.205404     5A     -1.073395     6A     -0.975650
       7A     -0.877858     8A     -0.771224     9A     -0.632086
      10A     -0.620159    11A     -0.570028    12A     -0.538665
      13A     -0.527978    14A     -0.505982    15A     -0.462886
      16A     -0.459101    17A     -0.451768

  @DF-RHF Final Energy:  -157.35226458641097

   => Energetics <=

    Nuclear Repulsion Energy =            133.9016001185999869
    One-Electron Energy =                -475.9067233860197348
    Two-Electron Energy =                 184.6528586810088086
    DFT Exchange-Correlation Energy =       0.0000000000000000
    Empirical Dispersion Energy =           0.0000000000000000
    PCM Polarization Energy =               0.0000000000000000
    EFP Energy =                            0.0000000000000000
    Total Energy =                       -157.3522645864109677
  Basis Set: (AUG-CC-PVTZ AUX)
    Blend: AUG-CC-PVTZ-RI
    Molecular point group: c1
  Basis Set: AUG-CC-PVTZ
    Blend: AUG-CC-PVTZ
  Basis Set: (AUG-CC-PVTZ AUX)
    Blend: AUG-CC-PVTZ-JKFIT
  Basis Set: (AUG-CC-PVTZ AUX)
    Blend: AUG-CC-PVTZ-JKFIT
	 Reference Energy          =    -157.3522645864109677 [Eh]
	 Singles Energy            =      -0.0000000000000000 [Eh]
	 Same-Spin Energy          =      -0.1659586673083829 [Eh]
	 Opposite-Spin Energy      =      -0.6403111754060699 [Eh]
	 Correlation Energy        =      -0.8062698427144527 [Eh]
	 Total Energy              =    -158.1585344291254103 [Eh]

	 ================> DF-SCS-MP2 Energies <==================
	-----------------------------------------------------------
	 SCS Same-Spin Scale       =       0.3333333333333333 [-]
	 SCS Opposite-Spin Scale   =       1.2000000000000000 [-]
	 SCS Same-Spin Energy      =      -0.0553195557694609 [Eh]
	 SCS Opposite-Spin Energy  =      -0.7683734104872838 [Eh]
	 SCS Correlation Energy    =      -0.8236929662567447 [Eh]
	 SCS Total Energy          =    -158.1759575526677111 [Eh]
	-----------------------------------------------------------

  -Total Gradient:
     Atom            X                  Y                   Z
    ------   -----------------  -----------------  -----------------
       1       -0.000012815842    -0.000007082480    -0.000012273147
       2       -0.000001952394    -0.000002438395     0.000005453327
       3        0.000006973730     0.000002635677     0.000010497048
       4        0.002497472668     0.001210231255    -0.001805685396
       5        0.000009163586     0.000012908906     0.000007226112
       6        0.000013540725    -0.000023705494    -0.000014528477
       7       -0.003861771548    -0.001933438126     0.003879485375
       8       -0.000020246178     0.000021163127     0.000009121949
       9        0.000013104096    -0.000004584005     0.000010147752
      10        0.002099336148     0.001306093421    -0.005252785633
      11        0.000003934580     0.000002797628    -0.000004062964
      12       -0.000015874250    -0.000003293796    -0.000010100643
      13        0.000011139774     0.000003943302     0.000003927181
      14       -0.000742005095    -0.000585231018     0.003173577513

  **** Optimization is complete! (in 17 steps) ****
    Final optimized geometry and variables:
    Molecular point group: c1

    Geometry (in Angstrom), charge = 0, multiplicity = 1:

    H            0.754500882833     1.511599978672     0.788904105034
    H           -0.826383362738     2.261756583130     0.934745928756
    H           -0.483452388035     0.763421170797     1.788967997792
    C           -0.309926961342     1.307419560948     0.861095888976
    H           -1.891590297186     0.448968387693    -0.312770318857
    H           -0.556323753522     1.080109115323    -1.242047046239
    C           -0.804996208486     0.519713374360    -0.339013597079
    H           -0.757740205441    -1.548209882336     0.218358761841
    H           -0.387037910741    -1.260666680605    -1.462335518196
    C           -0.214699733237    -0.882951839617    -0.455354269275
    H            1.642521380623    -1.971029973730    -0.298959528625
    H            1.445952988166    -0.727752136576     0.925303316749
    H            1.847118103738    -0.277648379659    -0.726635652434
    C            1.263478889523    -0.967743052461    -0.118255768768

*** Psi4 exiting successfully. Buy a developer a beer!
