                               Psi4 1.1 release

  ==> Input File <==

--------------------------------------------------------------------------

memory 5 Gb

molecule phepyrOH_cation {
  symmetry C1
  1 1
  C      1.885   -1.036   -0.112
  C      2.878   -1.652   2.002
  C      0.807   -0.463   0.561
  C      1.800   -1.079   2.676
  C      4.440   -1.719   -1.322
  C      4.716   -3.305   0.469
  C      5.516   -2.309   -1.970
  C      5.786   -3.855   -0.224
  C      2.921   -1.631   0.608
  C      4.040   -2.225   -0.090
  C      0.764   -0.484   1.955
  N      6.150   -3.348   -1.409
  O      -0.288   0.076   2.612
  H      1.904   -1.012   -1.199
  H      3.678   -2.112   2.578
  H      0.003   -0.001   -0.006
  H      1.772   -1.098   3.762
  H      3.931   -0.877   -1.782
  H      4.425   -3.721   1.429
  H      5.897   -1.982   -2.928
  H      6.368   -4.693   0.134
  H      6.938   -3.767   -1.902
  H      -1.124   -0.185   2.193
  units Angstrom
}

dih_string = "3 11 13 23 45"
set optking fixed_dihedral = $dih_string

optimize('MP2/aug-cc-PVTZ')
--------------------------------------------------------------------------

    Molecular point group: c1
  Charge       = 1
  Multiplicity = 1
  Basis Set: AUG-CC-PVTZ
    Blend: AUG-CC-PVTZ
  Basis Set: (AUG-CC-PVTZ AUX)
    Blend: AUG-CC-PVTZ-JKFIT
  @DF-RHF Final Energy:  -551.67311947878022
    Total Energy =                       -551.6731194787802224
  Basis Set: (AUG-CC-PVTZ AUX)
    Blend: AUG-CC-PVTZ-RI
    Molecular point group: c1
  Basis Set: AUG-CC-PVTZ
    Blend: AUG-CC-PVTZ
  Basis Set: (AUG-CC-PVTZ AUX)
    Blend: AUG-CC-PVTZ-JKFIT
  Basis Set: (AUG-CC-PVTZ AUX)
    Blend: AUG-CC-PVTZ-JKFIT
	 Reference Energy          =    -551.6731194787802224 [Eh]
	 Singles Energy            =      -0.0000000000000002 [Eh]
	 Same-Spin Energy          =      -0.5964177596070430 [Eh]
	 Opposite-Spin Energy      =      -1.8250451315376117 [Eh]
	 Correlation Energy        =      -2.4214628911446550 [Eh]
	 Total Energy              =    -554.0945823699248649 [Eh]
	 SCS Total Energy          =    -554.0619795564944070 [Eh]
  @DF-RHF Final Energy:  -551.67824376631120
    Total Energy =                       -551.6782437663111978
  @DF-RHF Final Energy:  -551.67929411520561
    Total Energy =                       -551.6792941152056073
  @DF-RHF Final Energy:  -551.67932278761941
    Total Energy =                       -551.6793227876194123
  @DF-RHF Final Energy:  -551.67933901510537
    Total Energy =                       -551.6793390151053700
  Charge       = 1
  Multiplicity = 1
  Basis Set: AUG-CC-PVTZ
    Blend: AUG-CC-PVTZ
  Basis Set: (AUG-CC-PVTZ AUX)
    Blend: AUG-CC-PVTZ-JKFIT

    Orbital Energies (a.u.)
    -----------------------

    Doubly Occupied:

       1A    -20.699711     2A    -15.828321     3A    -11.479989
       4A    -11.479954     5A    -11.450400     6A    -11.431049
       7A    -11.410045     8A    -11.409860     9A    -11.378946
      10A    -11.376761    11A    -11.374914    12A    -11.355232
      13A    -11.350172    14A     -1.521494    15A     -1.507228
      16A     -1.319208    17A     -1.266713    18A     -1.238138
      19A     -1.157220    20A     -1.155719    21A     -1.063021
      22A     -1.057957    23A     -0.975756    24A     -0.962277
      25A     -0.954056    26A     -0.870243    27A     -0.862180
      28A     -0.855660    29A     -0.819645    30A     -0.800790
      31A     -0.781647    32A     -0.771089    33A     -0.758410
      34A     -0.742117    35A     -0.724972    36A     -0.711311
      37A     -0.702210    38A     -0.671407    39A     -0.660389
      40A     -0.636661    41A     -0.610863    42A     -0.571195
      43A     -0.539475    44A     -0.472826    45A     -0.441943

  @DF-RHF Final Energy:  -551.67935185428541

   => Energetics <=

    Nuclear Repulsion Energy =            713.2912787609380985
    One-Electron Energy =               -2149.5229080606786738
    Two-Electron Energy =                 884.5522774454552746
    DFT Exchange-Correlation Energy =       0.0000000000000000
    Empirical Dispersion Energy =           0.0000000000000000
    PCM Polarization Energy =               0.0000000000000000
    EFP Energy =                            0.0000000000000000
    Total Energy =                       -551.6793518542854144
  Basis Set: (AUG-CC-PVTZ AUX)
    Blend: AUG-CC-PVTZ-RI
    Molecular point group: c1
  Basis Set: AUG-CC-PVTZ
    Blend: AUG-CC-PVTZ
  Basis Set: (AUG-CC-PVTZ AUX)
    Blend: AUG-CC-PVTZ-JKFIT
  Basis Set: (AUG-CC-PVTZ AUX)
    Blend: AUG-CC-PVTZ-JKFIT
	 Reference Energy          =    -551.6793518542854144 [Eh]
	 Singles Energy            =      -0.0000000000000001 [Eh]
	 Same-Spin Energy          =      -0.5956548970050017 [Eh]
	 Opposite-Spin Energy      =      -1.8232509616505133 [Eh]
	 Correlation Energy        =      -2.4189058586555152 [Eh]
	 Total Energy              =    -554.0982577129409492 [Eh]

	 ================> DF-SCS-MP2 Energies <==================
	-----------------------------------------------------------
	 SCS Same-Spin Scale       =       0.3333333333333333 [-]
	 SCS Opposite-Spin Scale   =       1.2000000000000000 [-]
	 SCS Same-Spin Energy      =      -0.1985516323350006 [Eh]
	 SCS Opposite-Spin Energy  =      -2.1879011539806159 [Eh]
	 SCS Correlation Energy    =      -2.3864527863156164 [Eh]
	 SCS Total Energy          =    -554.0658046406010726 [Eh]
	-----------------------------------------------------------

  -Total Gradient:
     Atom            X                  Y                   Z
    ------   -----------------  -----------------  -----------------
       1       -0.000063204579     0.000029237412    -0.000039390930
       2        0.000034567103     0.000050648655     0.000070398725
       3        0.002040722760     0.003015788894     0.000240526680
       4        0.000010206566     0.000016558802     0.000021390924
       5        0.000068748603     0.000029642380    -0.000053143222
       6        0.000040104924    -0.000096227852    -0.000012890582
       7       -0.000008745421     0.000028576646    -0.000007136924
       8       -0.000020441273    -0.000023368319     0.000027819041
       9       -0.000070681681    -0.000002591400     0.000038884964
      10        0.000025094668     0.000004019245    -0.000004191523
      11       -0.003235254569    -0.005760157262     0.000195065608
      12       -0.000015085680     0.000013796772     0.000007737265
      13        0.001714234054     0.006596951888    -0.003098390260
      14        0.000054380576    -0.000034537784     0.000001052356
      15        0.000023844180    -0.000010117992    -0.000053539635
      16       -0.000002749231    -0.000001822667     0.000028109344
      17       -0.000025201997    -0.000000605165    -0.000020946728
      18       -0.000042672076    -0.000005988433     0.000036184667
      19       -0.000030075762     0.000039312039    -0.000001821368
      20        0.000000623414    -0.000014275512     0.000006596651
      21        0.000007417582     0.000011748062    -0.000010527097
      22       -0.000009976076     0.000004354959     0.000006158633
      23       -0.000495856100    -0.003890943361     0.002622053419

  **** Optimization is complete! (in 6 steps) ****
    Final optimized geometry and variables:
    Molecular point group: c1

    Geometry (in Angstrom), charge = 1, multiplicity = 1:

    C           -1.278502597152     0.742312962895    -0.564789825211
    C           -0.317635743652     0.084101180433     1.541513903705
    C           -2.350657352815     1.303776141670     0.098943025013
    C           -1.386886631976     0.646643186146     2.206810690365
    C            1.292193785044     0.004230491534    -1.804024501380
    C            1.607001442466    -1.527271912908     0.000415723789
    C            2.362735611421    -0.561086859855    -2.448865944832
    C            2.674100712422    -2.070666627714    -0.668578668340
    C           -0.246495774089     0.120970991620     0.144984232693
    C            0.877827835458    -0.464517558704    -0.550019033695
    C           -2.419786987128     1.241311242256     1.488697833779
    N            3.022474559962    -1.577104200946    -1.868348420406
    O           -3.401305691242     1.847233771480     2.195924400549
    H           -1.264208909432     0.766936218621    -1.643920481106
    H            0.485397287726    -0.348311273129     2.118953209008
    H           -3.141297723775     1.786824605384    -0.455192245724
    H           -1.440229408551     0.641589445736     3.283945555734
    H            0.796513009328     0.838278483293    -2.272419046194
    H            1.324851311696    -1.957265689720     0.947128896612
    H            2.724735128455    -0.228982513364    -3.407555490858
    H            3.258526232610    -2.893144321298    -0.291155984681
    H            3.811178733872    -1.985677272227    -2.352712268302
    H           -4.260496285175     1.693270623474     1.788750287437

*** Psi4 exiting successfully. Buy a developer a beer!
