                              Psi4 1.0.0 Driver

  ==> Input File <==

--------------------------------------------------------------------------

memory 1000 mb

molecule butane {
  symmetry C1
  0 1
  H      1.604   0.760   -8.260
  H      1.745   2.388   -8.880
  H      2.043   1.024   -9.930
  C      2.142   1.395   -8.932
  H      4.169   2.051   -9.210
  H      3.731   1.788   -7.539
  C      3.631   1.416   -8.537
  H      5.095   -0.070   -8.025
  H      3.482   -0.705   -8.233
  C      4.203   -0.012   -8.612
  H      4.926   -1.351   -10.128
  H      5.249   0.334   -10.456
  H      3.636   -0.302   -10.664
  C      4.528   -0.359   -10.076
  units Angstrom
}

dih_string = "4 7 10 14 80"
set optking fixed_dihedral = $dih_string

optimize('MP2/6-31G(d)')
--------------------------------------------------------------------------

    Molecular point group: c1
  Charge       = 0
  Multiplicity = 1
  Basis Set: 6-31G(D)
  Basis Set:
  @DF-RHF Final Energy:  -157.29125478907633
    Total Energy =                       -157.2912547890763335
  Basis Set:
    Molecular point group: c1
  Basis Set: 6-31G(D)
  Basis Set:
  Basis Set:
	 Reference Energy          =    -157.2912547890763335 [Eh]
	 Singles Energy            =      -0.0000000000000000 [Eh]
	 Same-Spin Energy          =      -0.1246874400873834 [Eh]
	 Opposite-Spin Energy      =      -0.4205078531209626 [Eh]
	 Correlation Energy        =      -0.5451952932083459 [Eh]
	 Total Energy              =    -157.8364500822846708 [Eh]
	 SCS Total Energy          =    -157.8374266928506131 [Eh]
  Basis Set: 6-31G(D)
  Basis Set:
  @DF-RHF Final Energy:  -157.29437830913122
    Total Energy =                       -157.2943783091312184
  Basis Set:
  Basis Set: 6-31G(D)
  Basis Set:
  @DF-RHF Final Energy:  -157.29531476425481
    Total Energy =                       -157.2953147642547833
  @DF-RHF Final Energy:  -157.29564721768222
    Total Energy =                       -157.2956472176823866
  @DF-RHF Final Energy:  -157.29567052914368
    Total Energy =                       -157.2956705291437061
	 Singles Energy            =      -0.0000000000000000 [Eh]
	 Same-Spin Energy          =      -0.1245509946653388 [Eh]
	 Opposite-Spin Energy      =      -0.4224465892389106 [Eh]
	 Correlation Energy        =      -0.5469975839042494 [Eh]
	 Total Energy              =    -157.8426681130479210 [Eh]
	 SCS Total Energy          =    -157.8441234344521433 [Eh]
  Charge       = 0
  Multiplicity = 1
  Basis Set: 6-31G(D)
  Basis Set:

    Orbital Energies (a.u.)
    -----------------------

    Doubly Occupied:

       1A    -11.215849     2A    -11.215259     3A    -11.210076
       4A    -11.210075     5A     -1.070010     6A     -0.976091
       7A     -0.868388     8A     -0.778197     9A     -0.621613
      10A     -0.618262    11A     -0.574957    12A     -0.535231
      13A     -0.525443    14A     -0.504110    15A     -0.465067
      16A     -0.456058    17A     -0.454366

  @DF-RHF Final Energy:  -157.29569402378064

   => Energetics <=

    Nuclear Repulsion Energy =            132.2702780979715840
    One-Electron Energy =                -472.5338406508591333
    Two-Electron Energy =                 182.9678685291071361
    DFT Exchange-Correlation Energy =       0.0000000000000000
    Empirical Dispersion Energy =           0.0000000000000000
    PCM Polarization Energy =               0.0000000000000000
    EFP Energy =                            0.0000000000000000
    Total Energy =                       -157.2956940237804133
  Basis Set:
    Molecular point group: c1
  Basis Set: 6-31G(D)
  Basis Set:
  Basis Set:
	 Reference Energy          =    -157.2956940237806407 [Eh]
	 Singles Energy            =      -0.0000000000000000 [Eh]
	 Same-Spin Energy          =      -0.1245484274861859 [Eh]
	 Opposite-Spin Energy      =      -0.4224273704971118 [Eh]
	 Correlation Energy        =      -0.5469757979832977 [Eh]
	 Total Energy              =    -157.8426698217639341 [Eh]

	 ================> DF-SCS-MP2 Energies <==================
	-----------------------------------------------------------
	 SCS Same-Spin Scale       =       0.3333333333333333 [-]
	 SCS Opposite-Spin Scale   =       1.2000000000000000 [-]
	 SCS Same-Spin Energy      =      -0.0415161424953953 [Eh]
	 SCS Opposite-Spin Energy  =      -0.5069128445965341 [Eh]
	 SCS Correlation Energy    =      -0.5484289870919293 [Eh]
	 SCS Total Energy          =    -157.8441230108725790 [Eh]
	-----------------------------------------------------------

  -Total Gradient:
     Atom            X                  Y                   Z
    ------   -----------------  -----------------  -----------------
       1       -0.000003326398     0.000009586735    -0.000008447071
       2       -0.000012552099     0.000000572172    -0.000004083406
       3        0.000005795539     0.000003779829     0.000008950338
       4       -0.000472585128    -0.000386275919     0.001934668496
       5       -0.000007722297     0.000000781996    -0.000000842168
       6        0.000005543248     0.000005419758    -0.000022744676
       7        0.001357919573     0.000881723614    -0.002555763387
       8       -0.000021320271    -0.000010728091    -0.000002895344
       9        0.000002813337    -0.000002602080    -0.000006788674
      10       -0.002697016198    -0.001305932312     0.000413136325
      11        0.000002302659    -0.000003827202    -0.000011981770
      12       -0.000004350720    -0.000012078873    -0.000003202316
      13        0.000006119351    -0.000000025878     0.000010005685
      14        0.001838379404     0.000819606250     0.000249987969

  **** Optimization is complete! (in 6 steps) ****
    Final optimized geometry and variables:
    Molecular point group: c1

    Geometry (in Angstrom), charge = 0, multiplicity = 1:

    H           -2.074799430315     0.147801151500     0.828167091356
    H           -1.926420079600     1.810692109784     0.245118540343
    H           -1.674245021482     0.461348348430    -0.864313519349
    C           -1.508067415634     0.803746128126     0.160927935592
    H            0.525738140782     1.493482356501    -0.104063865693
    H            0.081986139369     1.143753296094     1.556510969936
    C           -0.026510619627     0.785928808936     0.526042419249
    H            1.522003238449    -0.635412009891     1.008651904811
    H           -0.070498429533    -1.349206745818     0.832101392714
    C            0.608158402680    -0.601590150078     0.404152782980
    H            1.401239686812    -1.977134478480    -1.085006849592
    H            1.690155337656    -0.269703721003    -1.443303248211
    H            0.083067710194    -0.965633530048    -1.680366629519
    C            0.963522098687    -0.976325717743    -1.031787085210

*** Psi4 exiting successfully. Buy a developer a beer!
