                               Psi4 1.1 release

  ==> Input File <==

--------------------------------------------------------------------------

memory 1000 mb

molecule butane {
  symmetry C1
  0 1
  H      1.604   0.760   -8.260
  H      1.745   2.388   -8.880
  H      2.043   1.024   -9.930
  C      2.142   1.395   -8.932
  H      4.169   2.051   -9.210
  H      3.731   1.788   -7.539
  C      3.631   1.416   -8.537
  H      3.665   -0.647   -7.940
  H      4.104   -0.384   -9.610
  C      4.203   -0.012   -8.612
  H      6.117   0.953   -8.485
  H      6.208   -0.774   -8.733
  H      5.783   -0.138   -7.162
  C      5.691   0.009   -8.218
  units Angstrom
}

dih_string = "7 10 14 13 90"
set optking fixed_dihedral = $dih_string

optimize('MP2/aug-cc-pvtz')
--------------------------------------------------------------------------

    Molecular point group: c1
  Charge       = 0
  Multiplicity = 1
  Basis Set: AUG-CC-PVTZ
    Blend: AUG-CC-PVTZ
  Basis Set: (AUG-CC-PVTZ AUX)
    Blend: AUG-CC-PVTZ-JKFIT
  @DF-RHF Final Energy:  -157.35001044911235
    Total Energy =                       -157.3500104491123466
  Basis Set: (AUG-CC-PVTZ AUX)
    Blend: AUG-CC-PVTZ-RI
    Molecular point group: c1
  Basis Set: AUG-CC-PVTZ
    Blend: AUG-CC-PVTZ
  Basis Set: (AUG-CC-PVTZ AUX)
    Blend: AUG-CC-PVTZ-JKFIT
  Basis Set: (AUG-CC-PVTZ AUX)
    Blend: AUG-CC-PVTZ-JKFIT
	 Reference Energy          =    -157.3500104491123466 [Eh]
	 Singles Energy            =      -0.0000000000000000 [Eh]
	 Same-Spin Energy          =      -0.1654333008661100 [Eh]
	 Opposite-Spin Energy      =      -0.6391180956533488 [Eh]
	 Correlation Energy        =      -0.8045513965194587 [Eh]
	 Total Energy              =    -158.1545618456318039 [Eh]
	 SCS Total Energy          =    -158.1720965975183901 [Eh]
  @DF-RHF Final Energy:  -157.35277194819560
    Total Energy =                       -157.3527719481955955
  @DF-RHF Final Energy:  -157.35364152032412
    Total Energy =                       -157.3536415203241177
  @DF-RHF Final Energy:  -157.35395594500406
    Total Energy =                       -157.3539559450040599
  @DF-RHF Final Energy:  -157.35398119756115
    Total Energy =                       -157.3539811975611542
  Charge       = 0
  Multiplicity = 1
  Basis Set: AUG-CC-PVTZ
    Blend: AUG-CC-PVTZ
  Basis Set: (AUG-CC-PVTZ AUX)
    Blend: AUG-CC-PVTZ-JKFIT

    Orbital Energies (a.u.)
    -----------------------

    Doubly Occupied:

       1A    -11.211477     2A    -11.210800     3A    -11.205925
       4A    -11.205766     5A     -1.073496     6A     -0.981377
       7A     -0.861553     8A     -0.788211     9A     -0.639961
      10A     -0.584742    11A     -0.577719    12A     -0.568548
      13A     -0.513328    14A     -0.495718    15A     -0.470421
      16A     -0.459801    17A     -0.454980

  @DF-RHF Final Energy:  -157.35398783968142

   => Energetics <=

    Nuclear Repulsion Energy =            131.4081564943940634
    One-Electron Energy =                -470.9166418824452762
    Two-Electron Energy =                 182.1544975483697897
    DFT Exchange-Correlation Energy =       0.0000000000000000
    Empirical Dispersion Energy =           0.0000000000000000
    PCM Polarization Energy =               0.0000000000000000
    EFP Energy =                            0.0000000000000000
    Total Energy =                       -157.3539878396814231
  Basis Set: (AUG-CC-PVTZ AUX)
    Blend: AUG-CC-PVTZ-RI
    Molecular point group: c1
  Basis Set: AUG-CC-PVTZ
    Blend: AUG-CC-PVTZ
  Basis Set: (AUG-CC-PVTZ AUX)
    Blend: AUG-CC-PVTZ-JKFIT
  Basis Set: (AUG-CC-PVTZ AUX)
    Blend: AUG-CC-PVTZ-JKFIT
	 Reference Energy          =    -157.3539878396814231 [Eh]
	 Singles Energy            =      -0.0000000000000000 [Eh]
	 Same-Spin Energy          =      -0.1654417858270868 [Eh]
	 Opposite-Spin Energy      =      -0.6395144893171931 [Eh]
	 Correlation Energy        =      -0.8049562751442799 [Eh]
	 Total Energy              =    -158.1589441148257151 [Eh]

	 ================> DF-SCS-MP2 Energies <==================
	-----------------------------------------------------------
	 SCS Same-Spin Scale       =       0.3333333333333333 [-]
	 SCS Opposite-Spin Scale   =       1.2000000000000000 [-]
	 SCS Same-Spin Energy      =      -0.0551472619423623 [Eh]
	 SCS Opposite-Spin Energy  =      -0.7674173871806317 [Eh]
	 SCS Correlation Energy    =      -0.8225646491229940 [Eh]
	 SCS Total Energy          =    -158.1765524888044183 [Eh]
	-----------------------------------------------------------

  -Total Gradient:
     Atom            X                  Y                   Z
    ------   -----------------  -----------------  -----------------
       1        0.000006832267    -0.000004057768     0.000008658219
       2       -0.000013664164     0.000004425776    -0.000007684184
       3       -0.000014813019    -0.000004584232    -0.000003141185
       4        0.000030114800     0.000023196699    -0.000029892174
       5       -0.000014436294     0.000006488125     0.000014901093
       6        0.000014559694    -0.000005660837     0.000010232024
       7        0.000635539691     0.000379959317    -0.002335457639
       8       -0.000024020300    -0.000010533496     0.000011059875
       9        0.000002265147    -0.000011339298     0.000025344762
      10       -0.000841435575    -0.001404180263     0.003112177836
      11        0.000020714889     0.000018405700     0.000002089897
      12        0.000003401907     0.000018983813     0.000003358441
      13        0.000116237856    -0.003354403146    -0.000501437043
      14        0.000078703100     0.004343299608    -0.000310209925

  **** Optimization is complete! (in 6 steps) ****
    Final optimized geometry and variables:
    Molecular point group: c1

    Geometry (in Angstrom), charge = 0, multiplicity = 1:

    H           -2.348192124901     0.063284073939     0.337593899951
    H           -2.206874242534     1.689509254394    -0.320698479414
    H           -1.924630761260     0.292176537622    -1.353095167638
    C           -1.781513607865     0.689041853862    -0.349477067788
    H            0.237985394697     1.350986771447    -0.658201872525
    H           -0.181446969833     1.106523090732     1.021294283201
    C           -0.310226455726     0.694487822343     0.018691291157
    H           -0.257307885533    -1.370690366427     0.593809630902
    H            0.212417410239    -1.062037488002    -1.058439749109
    C            0.311397771902    -0.688401548174    -0.038349732320
    H            2.263100523463     0.244612762716     0.103148180749
    H            2.324133976179    -1.497633731613    -0.118301615235
    H            1.890424852981    -0.847262178514     1.440810349517
    C            1.779535177238    -0.692563946205     0.370150098136

*** Psi4 exiting successfully. Buy a developer a beer!
