                               Psi4 1.1 release

  ==> Input File <==

--------------------------------------------------------------------------

memory 5 Gb

molecule phepyrOH_zwitterion {
  symmetry C1
  0 1
  C      1.885   -1.036   -0.112
  C      2.878   -1.652   2.002
  C      0.807   -0.463   0.561
  C      1.800   -1.079   2.676
  C      5.298   -2.251   0.504
  C      3.860   -2.774   -1.357
  C      6.353   -2.827   -0.189
  C      4.951   -3.337   -2.003
  C      2.921   -1.631   0.608
  C      4.040   -2.226   -0.090
  C      0.764   -0.484   1.955
  N      6.152   -3.348   -1.407
  O      -0.227   0.042   2.574
  H      1.904   -1.011   -1.199
  H      3.678   -2.112   2.577
  H      0.011   -0.006   -0.025
  H      1.791   -1.108   3.764
  H      5.467   -1.831   1.491
  H      2.889   -2.768   -1.844
  H      7.362   -2.892   0.194
  H      4.905   -3.785   -2.986
  H      6.941   -3.766   -1.900
  units Angstrom
}

dih_string = "1 9 10 5 150"
set optking fixed_dihedral = $dih_string

optimize('MP2/aug-cc-PVTZ')
--------------------------------------------------------------------------

    Molecular point group: c1
  Charge       = 0
  Multiplicity = 1
  Basis Set: AUG-CC-PVTZ
    Blend: AUG-CC-PVTZ
  Basis Set: (AUG-CC-PVTZ AUX)
    Blend: AUG-CC-PVTZ-JKFIT
  @DF-RHF Final Energy:  -551.21483543882562
    Total Energy =                       -551.2148354388256166
  Basis Set: (AUG-CC-PVTZ AUX)
    Blend: AUG-CC-PVTZ-RI
    Molecular point group: c1
  Basis Set: AUG-CC-PVTZ
    Blend: AUG-CC-PVTZ
  Basis Set: (AUG-CC-PVTZ AUX)
    Blend: AUG-CC-PVTZ-JKFIT
  Basis Set: (AUG-CC-PVTZ AUX)
    Blend: AUG-CC-PVTZ-JKFIT
	 Reference Energy          =    -551.2148354388256166 [Eh]
	 Singles Energy            =      -0.0000000000000001 [Eh]
	 Same-Spin Energy          =      -0.6065225490798175 [Eh]
	 Opposite-Spin Energy      =      -1.8398933149670460 [Eh]
	 Correlation Energy        =      -2.4464158640468634 [Eh]
	 Total Energy              =    -553.6612513028725289 [Eh]
	 SCS Total Energy          =    -553.6248815998126247 [Eh]
  @DF-RHF Final Energy:  -551.22608599939599
    Total Energy =                       -551.2260859993959912
  @DF-RHF Final Energy:  -551.23481944531773
    Total Energy =                       -551.2348194453177257
  @DF-RHF Final Energy:  -551.24048226615446
    Total Energy =                       -551.2404822661544586
  @DF-RHF Final Energy:  -551.24307502043791
    Total Energy =                       -551.2430750204379137
  @DF-RHF Final Energy:  -551.24411463595357
    Total Energy =                       -551.2441146359535651
  @DF-RHF Final Energy:  -551.24467968507815
    Total Energy =                       -551.2446796850781539
  @DF-RHF Final Energy:  -551.24496519889738
    Total Energy =                       -551.2449651988973756
  @DF-RHF Final Energy:  -551.24490920280414
    Total Energy =                       -551.2449092028041377
  @DF-RHF Final Energy:  -551.24488512949483
    Total Energy =                       -551.2448851294948327
  @DF-RHF Final Energy:  -551.24460907188848
    Total Energy =                       -551.2446090718884761
  @DF-RHF Final Energy:  -551.24482953297411
    Total Energy =                       -551.2448295329741086
  @DF-RHF Final Energy:  -551.24481949178869
    Total Energy =                       -551.2448194917886894
  Charge       = 0
  Multiplicity = 1
  Basis Set: AUG-CC-PVTZ
    Blend: AUG-CC-PVTZ
  Basis Set: (AUG-CC-PVTZ AUX)
    Blend: AUG-CC-PVTZ-JKFIT

    Orbital Energies (a.u.)
    -----------------------

    Doubly Occupied:

       1A    -20.476789     2A    -15.663879     3A    -11.331931
       4A    -11.331886     5A    -11.295423     6A    -11.278665
       7A    -11.264217     8A    -11.263783     9A    -11.236799
      10A    -11.235647    11A    -11.222436    12A    -11.201837
      13A    -11.201331    14A     -1.346762    15A     -1.311216
      16A     -1.167339    17A     -1.106704    18A     -1.091002
      19A     -1.011223    20A     -0.996232    21A     -0.908108
      22A     -0.894955    23A     -0.814022    24A     -0.813392
      25A     -0.794487    26A     -0.718117    27A     -0.710896
      28A     -0.681175    29A     -0.657412    30A     -0.628785
      31A     -0.623739    32A     -0.618274    33A     -0.612153
      34A     -0.582674    35A     -0.556139    36A     -0.549702
      37A     -0.524078    38A     -0.520291    39A     -0.485867
      40A     -0.473589    41A     -0.410001    42A     -0.397211
      43A     -0.370516    44A     -0.344362    45A     -0.246582

  @DF-RHF Final Energy:  -551.24481520781956

   => Energetics <=

    Nuclear Repulsion Energy =            698.5550719808333042
    One-Electron Energy =               -2133.6565204071430344
    Two-Electron Energy =                 883.8566332184900602
    DFT Exchange-Correlation Energy =       0.0000000000000000
    Empirical Dispersion Energy =           0.0000000000000000
    PCM Polarization Energy =               0.0000000000000000
    EFP Energy =                            0.0000000000000000
    Total Energy =                       -551.2448152078195562
  Basis Set: (AUG-CC-PVTZ AUX)
    Blend: AUG-CC-PVTZ-RI
    Molecular point group: c1
  Basis Set: AUG-CC-PVTZ
    Blend: AUG-CC-PVTZ
  Basis Set: (AUG-CC-PVTZ AUX)
    Blend: AUG-CC-PVTZ-JKFIT
  Basis Set: (AUG-CC-PVTZ AUX)
    Blend: AUG-CC-PVTZ-JKFIT
	 Reference Energy          =    -551.2448152078195562 [Eh]
	 Singles Energy            =      -0.0000000000000002 [Eh]
	 Same-Spin Energy          =      -0.5996379061635406 [Eh]
	 Opposite-Spin Energy      =      -1.8350685720161894 [Eh]
	 Correlation Energy        =      -2.4347064781797303 [Eh]
	 Total Energy              =    -553.6795216859992479 [Eh]

	 ================> DF-SCS-MP2 Energies <==================
	-----------------------------------------------------------
	 SCS Same-Spin Scale       =       0.3333333333333333 [-]
	 SCS Opposite-Spin Scale   =       1.2000000000000000 [-]
	 SCS Same-Spin Energy      =      -0.1998793020545135 [Eh]
	 SCS Opposite-Spin Energy  =      -2.2020822864194272 [Eh]
	 SCS Correlation Energy    =      -2.4019615884739411 [Eh]
	 SCS Total Energy          =    -553.6467767962934658 [Eh]
	-----------------------------------------------------------

  -Total Gradient:
     Atom            X                  Y                   Z
    ------   -----------------  -----------------  -----------------
       1        0.003151199752     0.005953867548     0.000285491749
       2       -0.000046677554    -0.000027468579    -0.000005529100
       3       -0.000010559286    -0.000002724154    -0.000010513556
       4       -0.000009716090    -0.000011315360    -0.000003818801
       5        0.001444550342     0.006135741593    -0.002815540511
       6        0.000011728479    -0.000031950707    -0.000006498079
       7       -0.000005866270    -0.000007259634     0.000009596891
       8       -0.000007314605    -0.000006613344     0.000009931210
       9       -0.004018382229    -0.005736902815    -0.001940794245
      10       -0.000570065291    -0.006317809307     0.004470333580
      11        0.000027558526     0.000017830245     0.000011808456
      12       -0.000003729808     0.000005043134     0.000002088735
      13        0.000011545650    -0.000019553847    -0.000022458998
      14       -0.000000504772     0.000023134315     0.000017865639
      15        0.000004391043     0.000002074243    -0.000000008425
      16        0.000015345117     0.000009673602     0.000001281992
      17        0.000009660712    -0.000003679022    -0.000031938877
      18        0.000000798515    -0.000001530799    -0.000001028416
      19        0.000006913464    -0.000001202493     0.000006449967
      20       -0.000002494208     0.000003428412    -0.000007512849
      21        0.000000850482     0.000009387318     0.000019556067
      22       -0.000009231985     0.000007829654     0.000011237565

  **** Optimization is complete! (in 14 steps) ****
    Final optimized geometry and variables:
    Molecular point group: c1

    Geometry (in Angstrom), charge = 0, multiplicity = 1:

    C           -1.378733658807     0.610832281892    -0.544542291058
    C           -0.313128058658     0.145091500020     1.587516826926
    C           -2.381113137132     1.269229695638     0.092181798152
    C           -1.328319518451     0.765220528949     2.241895452919
    C            2.097420428547    -0.599171150974     0.075709766000
    C            0.718323881877    -0.999294131066    -1.847597287387
    C            3.161760406686    -1.085248228869    -0.611778736279
    C            1.803772255232    -1.486377465718    -2.500098865037
    C           -0.303580222241     0.010115955895     0.169916410790
    C            0.790184142252    -0.547206163675    -0.495165516530
    C           -2.438968592334     1.375934022867     1.537102511892
    N            3.017634256403    -1.536276414965    -1.887408764366
    O           -3.364612565603     1.954078837512     2.126059749525
    H           -1.372213119266     0.590181910365    -1.625238652101
    H            0.477867958181    -0.312460441722     2.165515541060
    H           -3.166070379003     1.758192734167    -0.465575920059
    H           -1.344331619755     0.819357762650     3.320379733581
    H            2.273831097347    -0.217670112075     1.067548468691
    H           -0.223215628364    -1.002690618181    -2.371333302443
    H            4.158363396520    -1.111635915304    -0.203024621079
    H            1.760241181578    -1.859106919822    -3.510090890460
    H            3.814729429354    -1.891170976264    -2.385126286512

*** Psi4 exiting successfully. Buy a developer a beer!
