                               Psi4 1.1 release

  ==> Input File <==

--------------------------------------------------------------------------

memory 5 Gb

molecule phepyrFOH_neutral {
  symmetry C1
  0 1
  C      1.885   -1.036   -0.112
  C      0.807   -0.463   0.561
  C      3.825   -3.269   -0.988
  C      5.328   -1.753   0.119
  C      1.800   -1.079   2.676
  C      4.927   -3.802   -1.637
  C      6.363   -2.354   -0.579
  C      2.921   -1.631   0.608
  C      4.038   -2.225   -0.095
  C      0.764   -0.484   1.955
  C      2.878   -1.652   2.002
  N      6.195   -3.370   -1.455
  O      -0.289   0.076   2.612
  F      3.866   -2.220   2.709
  H      1.904   -1.012   -1.199
  H      0.002   -0.002   -0.006
  H      2.833   -3.663   -1.183
  H      5.532   -0.940   0.809
  H      1.772   -1.099   3.762
  H      4.814   -4.616   -2.345
  H      7.387   -2.023   -0.446
  H      -0.923   0.446   1.977
  units Angstrom
}

dih_string = "2 10 13 22 0.001"
set optking fixed_dihedral = $dih_string

optimize('MP2/aug-cc-PVTZ')
--------------------------------------------------------------------------

    Molecular point group: c1
  Charge       = 0
  Multiplicity = 1
  Basis Set: AUG-CC-PVTZ
    Blend: AUG-CC-PVTZ
  Basis Set: (AUG-CC-PVTZ AUX)
    Blend: AUG-CC-PVTZ-JKFIT

    Orbital Energies (a.u.)
    -----------------------

    Doubly Occupied:

       1A    -26.326124     2A    -20.608824     3A    -15.565363
       4A    -11.348751     5A    -11.327990     6A    -11.275022
       7A    -11.274160     8A    -11.266590     9A    -11.265423
      10A    -11.253147    11A    -11.250885    12A    -11.249501
      13A    -11.239748    14A    -11.238304    15A     -1.644131
      16A     -1.423488    17A     -1.250518    18A     -1.181951
      19A     -1.110260    20A     -1.041684    21A     -1.034574
      22A     -1.019350    23A     -0.890936    24A     -0.876838
      25A     -0.852899    26A     -0.827682    27A     -0.781045
      28A     -0.735907    29A     -0.721838    30A     -0.710226
      31A     -0.694067    32A     -0.665073    33A     -0.662857
      34A     -0.654826    35A     -0.630684    36A     -0.608490
      37A     -0.608144    38A     -0.599137    39A     -0.581861
      40A     -0.549951    41A     -0.536922    42A     -0.526010
      43A     -0.520499    44A     -0.494748    45A     -0.419466
      46A     -0.387108    47A     -0.359716    48A     -0.349273
      49A     -0.324839

  @DF-RHF Final Energy:  -650.17350193584093

   => Energetics <=

    Nuclear Repulsion Energy =            813.8859624415572398
    One-Electron Energy =               -2502.5852664612348235
    Two-Electron Energy =                1038.5258020838366519
    DFT Exchange-Correlation Energy =       0.0000000000000000
    Empirical Dispersion Energy =           0.0000000000000000
    PCM Polarization Energy =               0.0000000000000000
    EFP Energy =                            0.0000000000000000
    Total Energy =                       -650.1735019358409318
  Basis Set: (AUG-CC-PVTZ AUX)
    Blend: AUG-CC-PVTZ-RI
    Molecular point group: c1

    Geometry (in Angstrom), charge = 0, multiplicity = 1:

       Center              X                  Y                   Z               Mass
    ------------   -----------------  -----------------  -----------------  -----------------
           C         -1.317756033077     0.752527541677    -0.790997754525    12.000000000000
           C         -2.395756033077     1.325527541677    -0.117997754525    12.000000000000
           C          0.622243966923    -1.480472458323    -1.666997754525    12.000000000000
           C          2.125243966923     0.035527541677    -0.559997754525    12.000000000000
           C         -1.402756033077     0.709527541677     1.997002245475    12.000000000000
           C          1.724243966923    -2.013472458323    -2.315997754525    12.000000000000
           C          3.160243966923    -0.565472458323    -1.257997754525    12.000000000000
           C         -0.281756033077     0.157527541677    -0.070997754525    12.000000000000
           C          0.835243966923    -0.436472458323    -0.773997754525    12.000000000000
           C         -2.438756033077     1.304527541677     1.276002245475    12.000000000000
           C         -0.324756033077     0.136527541677     1.323002245475    12.000000000000
           N          2.992243966923    -1.581472458323    -2.133997754525    14.003074004780
           O         -3.491756033077     1.864527541677     1.933002245475    15.994914619560
           F          0.663243966923    -0.431472458323     2.030002245475    18.998403224000
           H         -1.298756033077     0.776527541677    -1.877997754525     1.007825032070
           H         -3.200756033077     1.786527541677    -0.684997754525     1.007825032070
           H         -0.369756033077    -1.874472458323    -1.861997754525     1.007825032070
           H          2.329243966923     0.848527541677     0.130002245475     1.007825032070
           H         -1.430756033077     0.689527541677     3.083002245475     1.007825032070
           H          1.611243966923    -2.827472458323    -3.023997754525     1.007825032070
           H          4.184243966923    -0.234472458323    -1.124997754525     1.007825032070
           H         -4.125756033077     2.234527541677     1.298002245475     1.007825032070

  Basis Set: AUG-CC-PVTZ
    Blend: AUG-CC-PVTZ
  Basis Set: (AUG-CC-PVTZ AUX)
    Blend: AUG-CC-PVTZ-JKFIT
  Basis Set: (AUG-CC-PVTZ AUX)
    Blend: AUG-CC-PVTZ-JKFIT
	 Reference Energy          =    -650.1735019358409318 [Eh]
	 Singles Energy            =      -0.0000000000000011 [Eh]
	 Same-Spin Energy          =      -0.6775453094543706 [Eh]
	 Opposite-Spin Energy      =      -2.0194169858834234 [Eh]
	 Correlation Energy        =      -2.6969622953377956 [Eh]
	 Total Energy              =    -652.8704642311787438 [Eh]

	 ================> DF-SCS-MP2 Energies <==================
	-----------------------------------------------------------
	 SCS Same-Spin Scale       =       0.3333333333333333 [-]
	 SCS Opposite-Spin Scale   =       1.2000000000000000 [-]
	 SCS Same-Spin Energy      =      -0.2258484364847902 [Eh]
	 SCS Opposite-Spin Energy  =      -2.4233003830601079 [Eh]
	 SCS Correlation Energy    =      -2.6491488195448993 [Eh]
	 SCS Total Energy          =    -652.8226507553857800 [Eh]
	-----------------------------------------------------------

  -Total Gradient:
     Atom            X                  Y                   Z
    ------   -----------------  -----------------  -----------------
       1        0.010216961231    -0.002524756499    -0.011188181218
       2       -0.005894953326     0.003433809217     0.004265007535
       3       -0.007284972570    -0.000976080305     0.003014404475
       4       -0.003827389570     0.005899079996     0.003659512912
       5       -0.002068248242     0.001281001885    -0.006838999290
       6       -0.014018951307    -0.001016211717     0.002653280617
       7       -0.003120212387     0.009518818444     0.008711515904
       8       -0.001029762629     0.000511467589    -0.001932347261
       9       -0.001420428311     0.000933500138    -0.000545584145
      10        0.000085449909    -0.000288705294     0.013267390300
      11        0.023153000690    -0.015913617073     0.006115073462
      12        0.013526309173    -0.006720522173    -0.008422432937
      13        0.000428760856    -0.000101605742    -0.005936132181
      14        0.002600266590    -0.000886244533     0.002647190761
      15       -0.003170324494     0.001507197945    -0.006060904367
      16       -0.003019163171     0.001382406919    -0.003266692341
      17       -0.003135006995    -0.002584199790    -0.002793494883
      18        0.002905283261     0.003646652577     0.002792981647
      19        0.000579410956    -0.000233991345     0.005525769694
      20        0.000383786068    -0.001763004914    -0.001994368818
      21        0.002500378144     0.000172672069     0.000079498015
      22       -0.008390193868     0.004722332611    -0.003752487857

*** Psi4 exiting successfully. Buy a developer a beer!
