                               Psi4 1.1 release

  ==> Input File <==

--------------------------------------------------------------------------

memory 1000 mb

molecule butane {
  symmetry C1
  0 1
  H      1.822   0.810   -7.549
  H      1.698   2.343   -8.379
  H      1.700   0.853   -9.291
  C      2.095   1.350   -8.431
  H      3.904   1.956   -9.420
  H      4.028   1.914   -7.677
  C      3.631   1.416   -8.537
  H      3.665   -0.647   -7.940
  H      4.104   -0.384   -9.610
  C      4.203   -0.012   -8.612
  H      6.088   -0.983   -8.270
  H      5.791   0.381   -7.220
  H      6.230   0.644   -8.890
  C      5.691   0.009   -8.218
  units Angstrom
}

dih_string = "14 10 7 4 200"
set optking fixed_dihedral = $dih_string

optimize('MP2/aug-cc-pvtz')
--------------------------------------------------------------------------

    Molecular point group: c1
  Charge       = 0
  Multiplicity = 1
  Basis Set: AUG-CC-PVTZ
    Blend: AUG-CC-PVTZ
  Basis Set: (AUG-CC-PVTZ AUX)
    Blend: AUG-CC-PVTZ-JKFIT
  @DF-RHF Final Energy:  -157.35128131992008
    Total Energy =                       -157.3512813199200764
  Basis Set: (AUG-CC-PVTZ AUX)
    Blend: AUG-CC-PVTZ-RI
    Molecular point group: c1
  Basis Set: AUG-CC-PVTZ
    Blend: AUG-CC-PVTZ
  Basis Set: (AUG-CC-PVTZ AUX)
    Blend: AUG-CC-PVTZ-JKFIT
  Basis Set: (AUG-CC-PVTZ AUX)
    Blend: AUG-CC-PVTZ-JKFIT
	 Reference Energy          =    -157.3512813199200764 [Eh]
	 Singles Energy            =      -0.0000000000000000 [Eh]
	 Same-Spin Energy          =      -0.1654089324401204 [Eh]
	 Opposite-Spin Energy      =      -0.6389871812976525 [Eh]
	 Correlation Energy        =      -0.8043961137377729 [Eh]
	 Total Energy              =    -158.1556774336578428 [Eh]
	 SCS Total Energy          =    -158.1732022482906359 [Eh]
  @DF-RHF Final Energy:  -157.35393743281574
    Total Energy =                       -157.3539374328157407
  @DF-RHF Final Energy:  -157.35476810044440
    Total Energy =                       -157.3547681004444030
  @DF-RHF Final Energy:  -157.35506353390704
    Total Energy =                       -157.3550635339070425
  @DF-RHF Final Energy:  -157.35509626235682
    Total Energy =                       -157.3550962623568239
  @DF-RHF Final Energy:  -157.35510095742998
    Total Energy =                       -157.3551009574299826
  @DF-RHF Final Energy:  -157.35472521233550
    Total Energy =                       -157.3547252123354951
  @DF-RHF Final Energy:  -157.35508472874113
    Total Energy =                       -157.3550847287411329
  @DF-RHF Final Energy:  -157.35505710707378
    Total Energy =                       -157.3550571070737760
  @DF-RHF Final Energy:  -157.35507790280457
    Total Energy =                       -157.3550779028045667
  Charge       = 0
  Multiplicity = 1
  Basis Set: AUG-CC-PVTZ
    Blend: AUG-CC-PVTZ
  Basis Set: (AUG-CC-PVTZ AUX)
    Blend: AUG-CC-PVTZ-JKFIT

    Orbital Energies (a.u.)
    -----------------------

    Doubly Occupied:

       1A    -11.211328     2A    -11.210699     3A    -11.206207
       4A    -11.206200     5A     -1.073839     6A     -0.982291
       7A     -0.860848     8A     -0.788081     9A     -0.640045
      10A     -0.585236    11A     -0.581188    12A     -0.565280
      13A     -0.513851    14A     -0.497074    15A     -0.467952
      16A     -0.460352    17A     -0.456514

  @DF-RHF Final Energy:  -157.35507946384317

   => Energetics <=

    Nuclear Repulsion Energy =            131.5485811460935395
    One-Electron Energy =                -471.1933567412989419
    Two-Electron Energy =                 182.2896961313622057
    DFT Exchange-Correlation Energy =       0.0000000000000000
    Empirical Dispersion Energy =           0.0000000000000000
    PCM Polarization Energy =               0.0000000000000000
    EFP Energy =                            0.0000000000000000
    Total Energy =                       -157.3550794638431682
  Basis Set: (AUG-CC-PVTZ AUX)
    Blend: AUG-CC-PVTZ-RI
    Molecular point group: c1
  Basis Set: AUG-CC-PVTZ
    Blend: AUG-CC-PVTZ
  Basis Set: (AUG-CC-PVTZ AUX)
    Blend: AUG-CC-PVTZ-JKFIT
  Basis Set: (AUG-CC-PVTZ AUX)
    Blend: AUG-CC-PVTZ-JKFIT
	 Reference Energy          =    -157.3550794638431682 [Eh]
	 Singles Energy            =      -0.0000000000000001 [Eh]
	 Same-Spin Energy          =      -0.1654516336211730 [Eh]
	 Opposite-Spin Energy      =      -0.6394207295651633 [Eh]
	 Correlation Energy        =      -0.8048723631863364 [Eh]
	 Total Energy              =    -158.1599518270295164 [Eh]

	 ================> DF-SCS-MP2 Energies <==================
	-----------------------------------------------------------
	 SCS Same-Spin Scale       =       0.3333333333333333 [-]
	 SCS Opposite-Spin Scale   =       1.2000000000000000 [-]
	 SCS Same-Spin Energy      =      -0.0551505445403910 [Eh]
	 SCS Opposite-Spin Energy  =      -0.7673048754781959 [Eh]
	 SCS Correlation Energy    =      -0.8224554200185871 [Eh]
	 SCS Total Energy          =    -158.1775348838617674 [Eh]
	-----------------------------------------------------------

  -Total Gradient:
     Atom            X                  Y                   Z
    ------   -----------------  -----------------  -----------------
       1       -0.000006272194    -0.000004254344     0.000005244625
       2        0.000002112486     0.000003345567     0.000000459098
       3       -0.000004073268    -0.000000760688     0.000000008390
       4        0.000175676358    -0.000036214036     0.002178320222
       5       -0.000000741521     0.000001788117    -0.000002345595
       6        0.000000531690     0.000000083199    -0.000007939347
       7       -0.000424488639    -0.000081232702    -0.002207469810
       8        0.000000932538     0.000001270008    -0.000007790857
       9        0.000001129092    -0.000001400336    -0.000002624635
      10        0.000813795110     0.000448160712    -0.002048140946
      11       -0.000001420717    -0.000003110068    -0.000000263363
      12        0.000005592082     0.000002931256     0.000006735475
      13        0.000004171798     0.000000010953     0.000001504461
      14       -0.000566944814    -0.000330617635     0.002084302282

  **** Optimization is complete! (in 11 steps) ****
    Final optimized geometry and variables:
    Molecular point group: c1

    Geometry (in Angstrom), charge = 0, multiplicity = 1:

    H           -2.119259563940     0.142411318566     0.917060719748
    H           -2.250579042944     1.650423631127     0.017075314553
    H           -2.242884663887     0.111550920035    -0.836350938513
    C           -1.815525959813     0.653709172988     0.005785806701
    H            0.001456715160     1.280039518708    -0.966700917130
    H            0.094290370918     1.228657731464     0.776570570456
    C           -0.302474589173     0.702325057048    -0.093386594074
    H           -0.213694913454    -1.340986141928     0.526916067140
    H            0.192809596853    -1.097280863577    -1.154040996154
    C            0.325235203952    -0.680911415671    -0.155088123958
    H            2.235972271134    -1.664167944095     0.142422714830
    H            1.921067727556    -0.328866081485     1.246556196672
    H            2.358407879685    -0.002880623200    -0.424714484809
    C            1.794647762554    -0.673350845106     0.222129763862

*** Psi4 exiting successfully. Buy a developer a beer!
