                               Psi4 1.1 release

  ==> Input File <==

--------------------------------------------------------------------------

memory 5 Gb

molecule phepyrOH_cation {
  symmetry C1
  1 1
  C      1.885   -1.036   -0.112
  C      2.878   -1.652   2.002
  C      0.807   -0.463   0.561
  C      1.800   -1.079   2.676
  C      4.440   -1.719   -1.322
  C      4.716   -3.305   0.469
  C      5.516   -2.309   -1.970
  C      5.786   -3.855   -0.224
  C      2.921   -1.631   0.608
  C      4.040   -2.225   -0.090
  C      0.764   -0.484   1.955
  N      6.150   -3.348   -1.409
  O      -0.288   0.076   2.612
  H      1.904   -1.012   -1.199
  H      3.678   -2.112   2.578
  H      0.003   -0.001   -0.006
  H      1.772   -1.098   3.762
  H      3.931   -0.877   -1.782
  H      4.425   -3.721   1.429
  H      5.897   -1.982   -2.928
  H      6.368   -4.693   0.134
  H      6.938   -3.767   -1.902
  H      -0.595   -0.513   3.320
  units Angstrom
}

dih_string = "3 11 13 23 135"
set optking fixed_dihedral = $dih_string

optimize('MP2/aug-cc-PVTZ')
--------------------------------------------------------------------------

    Molecular point group: c1
  Charge       = 1
  Multiplicity = 1
  Basis Set: AUG-CC-PVTZ
    Blend: AUG-CC-PVTZ
  Basis Set: (AUG-CC-PVTZ AUX)
    Blend: AUG-CC-PVTZ-JKFIT
  @DF-RHF Final Energy:  -551.67305709786353
    Total Energy =                       -551.6730570978635342
  Basis Set: (AUG-CC-PVTZ AUX)
    Blend: AUG-CC-PVTZ-RI
    Molecular point group: c1
  Basis Set: AUG-CC-PVTZ
    Blend: AUG-CC-PVTZ
  Basis Set: (AUG-CC-PVTZ AUX)
    Blend: AUG-CC-PVTZ-JKFIT
  Basis Set: (AUG-CC-PVTZ AUX)
    Blend: AUG-CC-PVTZ-JKFIT
	 Reference Energy          =    -551.6730570978635342 [Eh]
	 Singles Energy            =      -0.0000000000000002 [Eh]
	 Same-Spin Energy          =      -0.5964155474455148 [Eh]
	 Opposite-Spin Energy      =      -1.8250189606051581 [Eh]
	 Correlation Energy        =      -2.4214345080506732 [Eh]
	 Total Energy              =    -554.0944916059141860 [Eh]
	 SCS Total Energy          =    -554.0618850330715759 [Eh]
  @DF-RHF Final Energy:  -551.67821092609597
    Total Energy =                       -551.6782109260959714
  @DF-RHF Final Energy:  -551.67920063207816
    Total Energy =                       -551.6792006320781638
  @DF-RHF Final Energy:  -551.67914110272193
    Total Energy =                       -551.6791411027219283
  @DF-RHF Final Energy:  -551.67915001023584
    Total Energy =                       -551.6791500102358441
  @DF-RHF Final Energy:  -551.67914629592110
    Total Energy =                       -551.6791462959211003
  @DF-RHF Final Energy:  -551.67914651736123
    Total Energy =                       -551.6791465173612323
  Charge       = 1
  Multiplicity = 1
  Basis Set: AUG-CC-PVTZ
    Blend: AUG-CC-PVTZ
  Basis Set: (AUG-CC-PVTZ AUX)
    Blend: AUG-CC-PVTZ-JKFIT

    Orbital Energies (a.u.)
    -----------------------

    Doubly Occupied:

       1A    -20.698397     2A    -15.828549     3A    -11.480236
       4A    -11.480087     5A    -11.450546     6A    -11.430905
       7A    -11.410343     8A    -11.410000     9A    -11.379156
      10A    -11.377082    11A    -11.375393    12A    -11.355211
      13A    -11.350607    14A     -1.520490    15A     -1.507452
      16A     -1.319443    17A     -1.266857    18A     -1.238284
      19A     -1.157283    20A     -1.155919    21A     -1.063222
      22A     -1.058003    23A     -0.975453    24A     -0.962473
      25A     -0.954163    26A     -0.870237    27A     -0.862364
      28A     -0.855908    29A     -0.819744    30A     -0.800926
      31A     -0.781308    32A     -0.771243    33A     -0.758582
      34A     -0.743659    35A     -0.726388    36A     -0.711423
      37A     -0.702425    38A     -0.665012    39A     -0.657762
      40A     -0.644389    41A     -0.607870    42A     -0.571383
      43A     -0.539600    44A     -0.473049    45A     -0.442915

  @DF-RHF Final Energy:  -551.67913853214213

   => Energetics <=

    Nuclear Repulsion Energy =            713.2619047862336856
    One-Electron Energy =               -2149.4586063878236928
    Two-Electron Energy =                 884.5175630694479878
    DFT Exchange-Correlation Energy =       0.0000000000000000
    Empirical Dispersion Energy =           0.0000000000000000
    PCM Polarization Energy =               0.0000000000000000
    EFP Energy =                            0.0000000000000000
    Total Energy =                       -551.6791385321421330
  Basis Set: (AUG-CC-PVTZ AUX)
    Blend: AUG-CC-PVTZ-RI
    Molecular point group: c1
  Basis Set: AUG-CC-PVTZ
    Blend: AUG-CC-PVTZ
  Basis Set: (AUG-CC-PVTZ AUX)
    Blend: AUG-CC-PVTZ-JKFIT
  Basis Set: (AUG-CC-PVTZ AUX)
    Blend: AUG-CC-PVTZ-JKFIT
	 Reference Energy          =    -551.6791385321421330 [Eh]
	 Singles Energy            =      -0.0000000000000001 [Eh]
	 Same-Spin Energy          =      -0.5955978129668718 [Eh]
	 Opposite-Spin Energy      =      -1.8231187652613294 [Eh]
	 Correlation Energy        =      -2.4187165782282012 [Eh]
	 Total Energy              =    -554.0978551103703467 [Eh]

	 ================> DF-SCS-MP2 Energies <==================
	-----------------------------------------------------------
	 SCS Same-Spin Scale       =       0.3333333333333333 [-]
	 SCS Opposite-Spin Scale   =       1.2000000000000000 [-]
	 SCS Same-Spin Energy      =      -0.1985326043222906 [Eh]
	 SCS Opposite-Spin Energy  =      -2.1877425183135952 [Eh]
	 SCS Correlation Energy    =      -2.3862751226358858 [Eh]
	 SCS Total Energy          =    -554.0654136547780126 [Eh]
	-----------------------------------------------------------

  -Total Gradient:
     Atom            X                  Y                   Z
    ------   -----------------  -----------------  -----------------
       1       -0.000061576649     0.000067328064    -0.000006184887
       2       -0.000040190522    -0.000010412586    -0.000016084272
       3       -0.001801468192    -0.003227906039    -0.000201463389
       4        0.000005306336     0.000067336664     0.000019096946
       5       -0.000014142744     0.000021800821     0.000017639816
       6       -0.000022466492     0.000003197720     0.000006848822
       7        0.000012539049    -0.000052216419     0.000042954715
       8       -0.000008609024     0.000039828020    -0.000043903551
       9        0.000103801787    -0.000053775879    -0.000020037269
      10       -0.000056038335     0.000023952513     0.000038680380
      11        0.001929459173     0.004147859592    -0.000615753359
      12        0.000020048529    -0.000003151330    -0.000020926148
      13        0.003141586854     0.001174229555     0.003942280322
      14        0.000005658966    -0.000015086338    -0.000014056047
      15        0.000018362309    -0.000012139852     0.000007276099
      16       -0.000039721776     0.000034316294     0.000010762564
      17       -0.000024355488    -0.000034183997     0.000032514843
      18       -0.000008180576     0.000023740208    -0.000021878333
      19        0.000002977129    -0.000017125835     0.000031301226
      20        0.000004118695    -0.000000474701    -0.000021101234
      21        0.000018239109    -0.000009435307     0.000008294063
      22        0.000024098166    -0.000010705573    -0.000014363817
      23       -0.003209446325    -0.002156975584    -0.003161897481

  **** Optimization is complete! (in 8 steps) ****
    Final optimized geometry and variables:
    Molecular point group: c1

    Geometry (in Angstrom), charge = 1, multiplicity = 1:

    C           -1.288470345978     0.748758226175    -0.517523601904
    C           -0.275707299967     0.063112443921     1.556027891335
    C           -2.346605913851     1.295060372327     0.178391393353
    C           -1.318276508185     0.636728786981     2.255846814293
    C            1.240067038115     0.017354375844    -1.834390559389
    C            1.612028849327    -1.527844146976    -0.052899768549
    C            2.289415808745    -0.543062138636    -2.517587594898
    C            2.657898254669    -2.065220456989    -0.759465452872
    C           -0.238236215223     0.119042742792     0.159321491033
    C            0.865330217968    -0.461534490298    -0.571749791103
    C           -2.359076850224     1.257014585227     1.569413444215
    N            2.967621698252    -1.562959977235    -1.966191200994
    O           -3.397522369638     1.847821671974     2.206026543330
    H           -1.313737306248     0.761698864094    -1.596707944616
    H            0.539089525293    -0.379851640358     2.108673375944
    H           -3.175392428927     1.755859908905    -0.335355887312
    H           -1.322656081403     0.624703493364     3.335253862614
    H            0.730459655235     0.855491131912    -2.280119302834
    H            1.360754973419    -1.966270961466     0.898668503403
    H            2.620013894547    -0.203770786346    -3.485115281517
    H            3.254445723261    -2.889945188010    -0.406667360751
    H            3.740524887830    -1.967656838760    -2.478607387365
    H           -3.727825319538     1.283947177383     2.913262509026

*** Psi4 exiting successfully. Buy a developer a beer!
