                               Psi4 1.1 release

  ==> Input File <==

--------------------------------------------------------------------------

memory 5 Gb

molecule phepyrFOH_neutral {
  symmetry C1
  0 1
  C      1.885   -1.036   -0.112
  C      0.807   -0.463   0.561
  C      5.207   -2.536   0.589
  C      3.945   -2.487   -1.457
  C      1.800   -1.079   2.676
  C      6.247   -3.105   -0.129
  C      5.041   -3.058   -2.084
  C      2.921   -1.631   0.608
  C      4.038   -2.225   -0.095
  C      0.764   -0.484   1.955
  C      2.878   -1.652   2.002
  N      6.194   -3.374   -1.452
  O      -0.289   0.076   2.612
  F      3.866   -2.220   2.709
  H      1.904   -1.012   -1.199
  H      0.002   -0.002   -0.006
  H      5.317   -2.347   1.653
  H      3.048   -2.257   -2.024
  H      1.772   -1.099   3.762
  H      7.180   -3.368   0.359
  H      5.020   -3.281   -3.145
  H      -0.175   -0.018   3.571
  units Angstrom
}

dih_string = "1 8 9 3 165"
set optking fixed_dihedral = $dih_string

optimize('MP2/aug-cc-PVTZ')
--------------------------------------------------------------------------

    Molecular point group: c1
  Charge       = 0
  Multiplicity = 1
  Basis Set: AUG-CC-PVTZ
    Blend: AUG-CC-PVTZ
  Basis Set: (AUG-CC-PVTZ AUX)
    Blend: AUG-CC-PVTZ-JKFIT
  @DF-RHF Final Energy:  -650.16068347344162
    Total Energy =                       -650.1606834734416225
  Basis Set: (AUG-CC-PVTZ AUX)
    Blend: AUG-CC-PVTZ-RI
    Molecular point group: c1
  Basis Set: AUG-CC-PVTZ
    Blend: AUG-CC-PVTZ
  Basis Set: (AUG-CC-PVTZ AUX)
    Blend: AUG-CC-PVTZ-JKFIT
  Basis Set: (AUG-CC-PVTZ AUX)
    Blend: AUG-CC-PVTZ-JKFIT
	 Reference Energy          =    -650.1606834734416225 [Eh]
	 Singles Energy            =      -0.0000000000000008 [Eh]
	 Same-Spin Energy          =      -0.6795584988722326 [Eh]
	 Opposite-Spin Energy      =      -2.0220022845799304 [Eh]
	 Correlation Energy        =      -2.7015607834521638 [Eh]
	 Total Energy              =    -652.8622442568937458 [Eh]
	 SCS Total Energy          =    -652.8136057145616178 [Eh]
  @DF-RHF Final Energy:  -650.16947730152719
    Total Energy =                       -650.1694773015271949
  @DF-RHF Final Energy:  -650.17423567457377
    Total Energy =                       -650.1742356745737652
  @DF-RHF Final Energy:  -650.17646685067962
    Total Energy =                       -650.1764668506796170
  @DF-RHF Final Energy:  -650.17758899280784
    Total Energy =                       -650.1775889928078414
  @DF-RHF Final Energy:  -650.17822654676627
    Total Energy =                       -650.1782265467663819
  @DF-RHF Final Energy:  -650.17858318406161
    Total Energy =                       -650.1785831840616083
  @DF-RHF Final Energy:  -650.17869747096938
    Total Energy =                       -650.1786974709693823
  @DF-RHF Final Energy:  -650.17873479402908
    Total Energy =                       -650.1787347940291966
  @DF-RHF Final Energy:  -650.17873667769095
    Total Energy =                       -650.1787366776909494
  @DF-RHF Final Energy:  -650.17874165176033
    Total Energy =                       -650.1787416517604470
  @DF-RHF Final Energy:  -650.17873994461581
    Total Energy =                       -650.1787399446156996
  @DF-RHF Final Energy:  -650.17872458810666
    Total Energy =                       -650.1787245881066610
  @DF-RHF Final Energy:  -650.17872969887117
    Total Energy =                       -650.1787296988711660
  Charge       = 0
  Multiplicity = 1
  Basis Set: AUG-CC-PVTZ
    Blend: AUG-CC-PVTZ
  Basis Set: (AUG-CC-PVTZ AUX)
    Blend: AUG-CC-PVTZ-JKFIT

    Orbital Energies (a.u.)
    -----------------------

    Doubly Occupied:

       1A    -26.326202     2A    -20.614182     3A    -15.559866
       4A    -11.351215     5A    -11.329725     6A    -11.272135
       7A    -11.270275     8A    -11.268983     9A    -11.264544
      10A    -11.259767    11A    -11.252049    12A    -11.242933
      13A    -11.236932    14A    -11.232843    15A     -1.645644
      16A     -1.432151    17A     -1.257576    18A     -1.186934
      19A     -1.112456    20A     -1.046310    21A     -1.032207
      22A     -1.026413    23A     -0.896984    24A     -0.881854
      25A     -0.851631    26A     -0.832054    27A     -0.775893
      28A     -0.751066    29A     -0.726248    30A     -0.712594
      31A     -0.699162    32A     -0.674075    33A     -0.659148
      34A     -0.637958    35A     -0.634846    36A     -0.616190
      37A     -0.613879    38A     -0.592280    39A     -0.583084
      40A     -0.550886    41A     -0.546611    42A     -0.540443
      43A     -0.510061    44A     -0.503618    45A     -0.417100
      46A     -0.407711    47A     -0.363237    48A     -0.346295
      49A     -0.315228

  @DF-RHF Final Energy:  -650.17873692621652

   => Energetics <=

    Nuclear Repulsion Energy =            813.1778036111492156
    One-Electron Energy =               -2500.9901223908500469
    Two-Electron Energy =                1037.6335818534844293
    DFT Exchange-Correlation Energy =       0.0000000000000000
    Empirical Dispersion Energy =           0.0000000000000000
    PCM Polarization Energy =               0.0000000000000000
    EFP Energy =                            0.0000000000000000
    Total Energy =                       -650.1787369262165157
  Basis Set: (AUG-CC-PVTZ AUX)
    Blend: AUG-CC-PVTZ-RI
    Molecular point group: c1
  Basis Set: AUG-CC-PVTZ
    Blend: AUG-CC-PVTZ
  Basis Set: (AUG-CC-PVTZ AUX)
    Blend: AUG-CC-PVTZ-JKFIT
  Basis Set: (AUG-CC-PVTZ AUX)
    Blend: AUG-CC-PVTZ-JKFIT
	 Reference Energy          =    -650.1787369262165157 [Eh]
	 Singles Energy            =      -0.0000000000000003 [Eh]
	 Same-Spin Energy          =      -0.6772368406604089 [Eh]
	 Opposite-Spin Energy      =      -2.0178252389668736 [Eh]
	 Correlation Energy        =      -2.6950620796272831 [Eh]
	 Total Energy              =    -652.8737990058438072 [Eh]

	 ================> DF-SCS-MP2 Energies <==================
	-----------------------------------------------------------
	 SCS Same-Spin Scale       =       0.3333333333333333 [-]
	 SCS Opposite-Spin Scale   =       1.2000000000000000 [-]
	 SCS Same-Spin Energy      =      -0.2257456135534696 [Eh]
	 SCS Opposite-Spin Energy  =      -2.4213902867602481 [Eh]
	 SCS Correlation Energy    =      -2.6471359003137183 [Eh]
	 SCS Total Energy          =    -652.8258728265302580 [Eh]
	-----------------------------------------------------------

  -Total Gradient:
     Atom            X                  Y                   Z
    ------   -----------------  -----------------  -----------------
       1       -0.001726056661    -0.003042464340    -0.000059398349
       2       -0.000004486970     0.000000475171    -0.000007147023
       3       -0.001294487774    -0.003300484566     0.000755442615
       4        0.000004256249    -0.000023004787    -0.000008133436
       5        0.000011533674     0.000009347896     0.000003860454
       6        0.000020764972     0.000038752380    -0.000021033869
       7       -0.000002177791    -0.000025330888     0.000004315460
       8        0.001887610419     0.002833451178     0.000503452883
       9        0.001156552174     0.003566700296    -0.001212156991
      10        0.000003511944    -0.000006971440     0.000006204511
      11       -0.000055843181    -0.000040161926    -0.000007511989
      12       -0.000007639154     0.000004683452     0.000009957964
      13       -0.000002408121     0.000004734301    -0.000000506687
      14        0.000009947749     0.000008715686     0.000006603612
      15        0.000000327759     0.000000677608     0.000015777756
      16        0.000003073999    -0.000000630714     0.000005853910
      17       -0.000009824344    -0.000007365599     0.000004808242
      18        0.000011331924    -0.000006382242     0.000006800385
      19        0.000001771070    -0.000000361782    -0.000006799503
      20       -0.000011072020    -0.000018585312     0.000005817468
      21        0.000000673546     0.000003925192     0.000000632742
      22        0.000002640535     0.000000280435    -0.000006840142

  **** Optimization is complete! (in 15 steps) ****
    Final optimized geometry and variables:
    Molecular point group: c1

    Geometry (in Angstrom), charge = 0, multiplicity = 1:

    C           -1.280897633746     0.807040306928    -0.734269133799
    C           -2.381634516096     1.354644159650    -0.107368357379
    C            2.109101527027    -0.747774859947    -0.163979024846
    C            0.776867380679    -0.731680787667    -2.116524117974
    C           -1.463478602501     0.710086395651     2.003378764426
    C            3.111785817611    -1.334517805710    -0.920153840728
    C            1.833734430134    -1.320640575672    -2.788402176641
    C           -0.224586516628     0.202491100838    -0.041635354283
    C            0.895064257373    -0.409182890951    -0.763457186464
    C           -2.477343915200     1.309458531257     1.275921511671
    C           -0.376730962596     0.175096851237     1.341579815660
    N            3.000805276380    -1.626168931879    -2.216847335510
    O           -3.575421870915     1.862681673025     1.853104580674
    F            0.546110874382    -0.425279417007     2.119630053483
    H           -1.221607258219     0.883615647250    -1.807628831662
    H           -3.167397509104     1.824500180886    -0.676449638716
    H            2.296098550720    -0.537867181878     0.873277461550
    H           -0.139759707272    -0.554362914905    -2.654998733364
    H           -1.497978450114     0.638978697529     3.079847670168
    H            4.054233047223    -1.584419109107    -0.453101442893
    H            1.734146272171    -1.565303062960    -3.836748750056
    H           -3.516064067347     1.765360346128     2.808425086886

*** Psi4 exiting successfully. Buy a developer a beer!
