                               Psi4 1.1 release

  ==> Input File <==

--------------------------------------------------------------------------

memory 5 Gb

molecule phepyrFOH_anion {
  symmetry C1
  -1 1
  C      1.885   -1.036   -0.112
  C      0.807   -0.463   0.561
  C      4.436   -1.717   -1.327
  C      4.718   -3.303   0.460
  C      1.800   -1.079   2.676
  C      5.512   -2.320   -1.959
  C      5.781   -3.834   -0.252
  C      2.921   -1.631   0.608
  C      4.038   -2.224   -0.095
  C      0.764   -0.484   1.955
  C      2.878   -1.652   2.002
  N      6.197   -3.369   -1.451
  O      -0.227   0.043   2.574
  F      3.866   -2.220   2.709
  H      1.904   -1.013   -1.200
  H      0.011   -0.007   -0.025
  H      3.931   -0.876   -1.791
  H      4.435   -3.725   1.419
  H      1.791   -1.109   3.764
  H      5.864   -1.960   -2.920
  H      6.343   -4.677   0.136
  units Angstrom
}

dih_string = "1 8 9 3 30"
set optking { opt_coordinates = cartesian
              fixed_dihedral = $dih_string
              dynamic_level = 1
              geom_maxiter = 250
              print_trajectory_xyz_file = True }

optimize('MP2/aug-cc-PVTZ')
--------------------------------------------------------------------------

    Molecular point group: c1
  Charge       = -1
  Multiplicity = 1
  Basis Set: AUG-CC-PVTZ
    Blend: AUG-CC-PVTZ
  Basis Set: (AUG-CC-PVTZ AUX)
    Blend: AUG-CC-PVTZ-JKFIT
  @DF-RHF Final Energy:  -649.60872580237128
    Total Energy =                       -649.6087258023712820
  Basis Set: (AUG-CC-PVTZ AUX)
    Blend: AUG-CC-PVTZ-RI
    Molecular point group: c1
  Basis Set: AUG-CC-PVTZ
    Blend: AUG-CC-PVTZ
  Basis Set: (AUG-CC-PVTZ AUX)
    Blend: AUG-CC-PVTZ-JKFIT
  Basis Set: (AUG-CC-PVTZ AUX)
    Blend: AUG-CC-PVTZ-JKFIT
	 Reference Energy          =    -649.6087258023712820 [Eh]
	 Singles Energy            =      -0.0000000000000002 [Eh]
	 Same-Spin Energy          =      -0.6868857268825287 [Eh]
	 Opposite-Spin Energy      =      -2.0271434710464145 [Eh]
	 Correlation Energy        =      -2.7140291979289430 [Eh]
	 Total Energy              =    -652.3227550003002762 [Eh]
	 SCS Total Energy          =    -652.2702598765878292 [Eh]
  @DF-RHF Final Energy:  -649.61663198569408
    Total Energy =                       -649.6166319856940845
  @DF-RHF Final Energy:  -649.62195041837185
    Total Energy =                       -649.6219504183718527
  @DF-RHF Final Energy:  -649.62475706414932
    Total Energy =                       -649.6247570641494349
  @DF-RHF Final Energy:  -649.62578720397516
    Total Energy =                       -649.6257872039752783
  @DF-RHF Final Energy:  -649.62612292014205
    Total Energy =                       -649.6261229201420520
  @DF-RHF Final Energy:  -649.62621430023967
    Total Energy =                       -649.6262143002397806
  @DF-RHF Final Energy:  -649.62623112119047
    Total Energy =                       -649.6262311211905853
  @DF-RHF Final Energy:  -649.62621430576564
    Total Energy =                       -649.6262143057656431
  Charge       = -1
  Multiplicity = 1
  Basis Set: AUG-CC-PVTZ
    Blend: AUG-CC-PVTZ
  Basis Set: (AUG-CC-PVTZ AUX)
    Blend: AUG-CC-PVTZ-JKFIT

    Orbital Energies (a.u.)
    -----------------------

    Doubly Occupied:

       1A    -26.178497     2A    -20.330341     3A    -15.447181
       4A    -11.194676     5A    -11.163109     6A    -11.161554
       7A    -11.151659     8A    -11.146682     9A    -11.117997
      10A    -11.114731    11A    -11.112639    12A    -11.088462
      13A    -11.070182    14A    -11.068860    15A     -1.490768
      16A     -1.162523    17A     -1.144176    18A     -1.024764
      19A     -0.967346    20A     -0.919513    21A     -0.878408
      22A     -0.852517    23A     -0.746557    24A     -0.741531
      25A     -0.695529    26A     -0.676372    27A     -0.608567
      28A     -0.578665    29A     -0.567276    30A     -0.559826
      31A     -0.543745    32A     -0.526875    33A     -0.508940
      34A     -0.481371    35A     -0.476980    36A     -0.457673
      37A     -0.436043    38A     -0.433860    39A     -0.402427
      40A     -0.391970    41A     -0.388840    42A     -0.367354
      43A     -0.325394    44A     -0.309646    45A     -0.255094
      46A     -0.239999    47A     -0.237068    48A     -0.210091
      49A     -0.120323

  @DF-RHF Final Energy:  -649.62623389040402

   => Energetics <=

    Nuclear Repulsion Energy =            797.0618569963618256
    One-Electron Energy =               -2483.2269769841959715
    Two-Electron Energy =                1036.5388860974303498
    DFT Exchange-Correlation Energy =       0.0000000000000000
    Empirical Dispersion Energy =           0.0000000000000000
    PCM Polarization Energy =               0.0000000000000000
    EFP Energy =                            0.0000000000000000
    Total Energy =                       -649.6262338904039098
  Basis Set: (AUG-CC-PVTZ AUX)
    Blend: AUG-CC-PVTZ-RI
    Molecular point group: c1
  Basis Set: AUG-CC-PVTZ
    Blend: AUG-CC-PVTZ
  Basis Set: (AUG-CC-PVTZ AUX)
    Blend: AUG-CC-PVTZ-JKFIT
  Basis Set: (AUG-CC-PVTZ AUX)
    Blend: AUG-CC-PVTZ-JKFIT
	 Reference Energy          =    -649.6262338904040234 [Eh]
	 Singles Energy            =      -0.0000000000000002 [Eh]
	 Same-Spin Energy          =      -0.6847774580550212 [Eh]
	 Opposite-Spin Energy      =      -2.0250751102646110 [Eh]
	 Correlation Energy        =      -2.7098525683196319 [Eh]
	 Total Energy              =    -652.3360864587236847 [Eh]

	 ================> DF-SCS-MP2 Energies <==================
	-----------------------------------------------------------
	 SCS Same-Spin Scale       =       0.3333333333333333 [-]
	 SCS Opposite-Spin Scale   =       1.2000000000000000 [-]
	 SCS Same-Spin Energy      =      -0.2282591526850071 [Eh]
	 SCS Opposite-Spin Energy  =      -2.4300901323175332 [Eh]
	 SCS Correlation Energy    =      -2.6583492850025401 [Eh]
	 SCS Total Energy          =    -652.2845831754065102 [Eh]
	-----------------------------------------------------------

  -Total Gradient:
     Atom            X                  Y                   Z
    ------   -----------------  -----------------  -----------------
       1       -0.000469014920    -0.001360484901     0.000039749803
       2        0.000003287329     0.000072997329     0.000043659007
       3        0.000838031973     0.000800804759     0.000700966687
       4        0.000149746828     0.000286236062     0.000115991270
       5        0.000278671827     0.000170489645     0.000088880102
       6       -0.000285230051    -0.000276579122    -0.000287491369
       7        0.000132992720     0.000115715990     0.000164921765
       8        0.001418430755     0.002472515167     0.000144582426
       9       -0.001550312065    -0.001858253233    -0.000961282805
      10       -0.000067473796    -0.000005621499    -0.000098693730
      11       -0.000459102390    -0.000546347923     0.000068922994
      12        0.000112730138    -0.000041932581    -0.000085391334
      13        0.000031695982     0.000010188310    -0.000010089728
      14        0.000167742080     0.000081507513     0.000050593393
      15        0.000045256561     0.000108823047    -0.000067911586
      16       -0.000102210027    -0.000032403617     0.000007691462
      17       -0.000115184844     0.000046408127     0.000016593403
      18       -0.000171934318    -0.000203853346    -0.000014674787
      19       -0.000061446719     0.000067084101     0.000038764858
      20        0.000152247459     0.000148923498     0.000080228631
      21       -0.000048924528    -0.000056217333    -0.000036010450

  **** Optimization is complete! (in 9 steps) ****
    Final optimized geometry and variables:
    Molecular point group: c1

    Geometry (in Angstrom), charge = -1, multiplicity = 1:

    C           -1.326330120995     0.776132463144    -0.736069138070
    C           -2.411946072907     1.340647956632    -0.113433035046
    C            1.260697346326     0.041317648570    -1.988536023939
    C            1.576327962874    -1.530207902596    -0.257640178620
    C           -1.471229941713     0.741527135765     2.012836854464
    C            2.305119692320    -0.560943784339    -2.665125549864
    C            2.613181854867    -2.061656079329    -1.003580160942
    C           -0.266096805134     0.163293527906    -0.039659945660
    C            0.840194580490    -0.438846623954    -0.740035601180
    C           -2.556938789332     1.369101442878     1.315830074945
    C           -0.419328162945     0.174621534552     1.350230543446
    N            2.999995319840    -1.607881915435    -2.202548489445
    O           -3.541919112918     1.890465066905     1.904025697124
    F            0.579838021132    -0.368909668841     2.116783070124
    H           -1.297013057692     0.764145716886    -1.817973975959
    H           -3.209190926073     1.775102656030    -0.700166399896
    H            0.779424788290     0.905122422415    -2.421953666958
    H            1.323434783443    -1.976592718635     0.689568793621
    H           -1.486174007940     0.726805119575     3.091801936161
    H            2.615082621015    -0.170566436415    -3.626425436123
    H            3.163377039697    -2.910768967911    -0.618161515248

*** Psi4 exiting successfully. Buy a developer a beer!
