                              Psi4 1.0.0 Driver

  ==> Input File <==

--------------------------------------------------------------------------

memory 1000 mb

molecule butane {
  symmetry C1
  0 1
  H      1.604   0.760   -8.260
  H      1.745   2.388   -8.880
  H      2.043   1.024   -9.930
  C      2.142   1.395   -8.932
  H      4.169   2.051   -9.210
  H      3.731   1.788   -7.539
  C      3.631   1.416   -8.537
  H      5.267   0.025   -8.509
  H      3.789   -0.604   -7.823
  C      4.203   -0.012   -8.612
  H      4.237   -1.632   -10.021
  H      4.253   -0.049   -10.759
  H      2.775   -0.678   -10.073
  C      3.840   -0.641   -9.970
  units Angstrom
}

dih_string = "4 7 10 14 50"
set optking fixed_dihedral = $dih_string

optimize('MP2/6-31G(d)')
--------------------------------------------------------------------------

    Molecular point group: c1
  Charge       = 0
  Multiplicity = 1
  Basis Set: 6-31G(D)
  Basis Set:
  @DF-RHF Final Energy:  -157.28731675488655
    Total Energy =                       -157.2873167548862057
  Basis Set:
    Molecular point group: c1
  Basis Set: 6-31G(D)
  Basis Set:
  Basis Set:
	 Reference Energy          =    -157.2873167548865467 [Eh]
	 Singles Energy            =      -0.0000000000000000 [Eh]
	 Same-Spin Energy          =      -0.1252438798711886 [Eh]
	 Opposite-Spin Energy      =      -0.4210940119937231 [Eh]
	 Correlation Energy        =      -0.5463378918649118 [Eh]
	 Total Energy              =    -157.8336546467514552 [Eh]
	 SCS Total Energy          =    -157.8343775292360647 [Eh]
  Basis Set: 6-31G(D)
  Basis Set:
  @DF-RHF Final Energy:  -157.29286823457531
    Total Energy =                       -157.2928682345753657
  Basis Set:
  Basis Set: 6-31G(D)
  Basis Set:
  @DF-RHF Final Energy:  -157.29429547177975
    Total Energy =                       -157.2942954717794066
  @DF-RHF Final Energy:  -157.29516520114746
    Total Energy =                       -157.2951652011476540
  @DF-RHF Final Energy:  -157.29541136199524
    Total Energy =                       -157.2954113619955478
  @DF-RHF Final Energy:  -157.29545650132434
    Total Energy =                       -157.2954565013244803
  @DF-RHF Final Energy:  -157.29548758281939
    Total Energy =                       -157.2954875828193053
  @DF-RHF Final Energy:  -157.29548423957462
    Total Energy =                       -157.2954842395747619
  @DF-RHF Final Energy:  -157.29548023977395
    Total Energy =                       -157.2954802397739797
	 Singles Energy            =      -0.0000000000000000 [Eh]
	 Same-Spin Energy          =      -0.1247076907580890 [Eh]
	 Opposite-Spin Energy      =      -0.4225825768169448 [Eh]
	 Correlation Energy        =      -0.5472902675750339 [Eh]
	 Total Energy              =    -157.8427705073489733 [Eh]
	 SCS Total Energy          =    -157.8441485622069820 [Eh]
  Charge       = 0
  Multiplicity = 1
  Basis Set: 6-31G(D)
  Basis Set:

    Orbital Energies (a.u.)
    -----------------------

    Doubly Occupied:

       1A    -11.216047     2A    -11.215456     3A    -11.209681
       4A    -11.209675     5A     -1.070315     6A     -0.974056
       7A     -0.874520     8A     -0.771688     9A     -0.626877
      10A     -0.618121    11A     -0.570460    12A     -0.535189
      13A     -0.529215    14A     -0.503416    15A     -0.460690
      16A     -0.458111    17A     -0.454559

  @DF-RHF Final Energy:  -157.29547832545057

   => Energetics <=

    Nuclear Repulsion Energy =            133.0048796814889442
    One-Electron Energy =                -474.0045593285137784
    Two-Electron Energy =                 183.7042013215744305
    DFT Exchange-Correlation Energy =       0.0000000000000000
    Empirical Dispersion Energy =           0.0000000000000000
    PCM Polarization Energy =               0.0000000000000000
    EFP Energy =                            0.0000000000000000
    Total Energy =                       -157.2954783254504036
  Basis Set:
    Molecular point group: c1
  Basis Set: 6-31G(D)
  Basis Set:
  Basis Set:
	 Reference Energy          =    -157.2954783254505742 [Eh]
	 Singles Energy            =      -0.0000000000000000 [Eh]
	 Same-Spin Energy          =      -0.1247074312939287 [Eh]
	 Opposite-Spin Energy      =      -0.4225831059827358 [Eh]
	 Correlation Energy        =      -0.5472905372766644 [Eh]
	 Total Energy              =    -157.8427688627272403 [Eh]

	 ================> DF-SCS-MP2 Energies <==================
	-----------------------------------------------------------
	 SCS Same-Spin Scale       =       0.3333333333333333 [-]
	 SCS Opposite-Spin Scale   =       1.2000000000000000 [-]
	 SCS Same-Spin Energy      =      -0.0415691437646429 [Eh]
	 SCS Opposite-Spin Energy  =      -0.5070997271792830 [Eh]
	 SCS Correlation Energy    =      -0.5486688709439258 [Eh]
	 SCS Total Energy          =    -157.8441471963944878 [Eh]
	-----------------------------------------------------------

  -Total Gradient:
     Atom            X                  Y                   Z
    ------   -----------------  -----------------  -----------------
       1       -0.000003397311     0.000003912498    -0.000004257965
       2        0.000005482958    -0.000007349300    -0.000001534736
       3        0.000008025766     0.000000523520     0.000005515260
       4        0.000539451413     0.000384828818    -0.002166266130
       5        0.000000053647    -0.000001351867    -0.000000035244
       6       -0.000000358317    -0.000007635342    -0.000012008301
       7       -0.001540737733    -0.000906612886     0.003424244529
       8       -0.000013986060     0.000002569783    -0.000001512951
       9       -0.000000327029     0.000001281187    -0.000000550294
      10        0.002909170898     0.001387081448    -0.002128911284
      11       -0.000004382645     0.000008489806     0.000002958047
      12       -0.000002654219    -0.000006076200    -0.000001317524
      13        0.000004802146     0.000004091469     0.000007035133
      14       -0.001901143513    -0.000863752932     0.000876641461

  **** Optimization is complete! (in 10 steps) ****
    Final optimized geometry and variables:
    Molecular point group: c1

    Geometry (in Angstrom), charge = 0, multiplicity = 1:

    H           -1.909338881328     0.247494557751     0.732036207113
    H           -1.707880147444     1.952449027667     0.312315337826
    H           -1.493895286833     0.711885908258    -0.922569900596
    C           -1.319850706533     0.946494104879     0.129685693899
    H            0.720813387398     1.535353267517    -0.178223560518
    H            0.317127126174     1.240608705855     1.502857758102
    C            0.161212229602     0.863993805812     0.485582694763
    H            1.837480667201    -0.484053659037     0.536298992292
    H            0.360172177722    -1.155783628416     1.201285358335
    C            0.754243985036    -0.542546362398     0.380820595321
    H            0.987989406147    -2.205225793725    -0.993631206968
    H            0.790345332964    -0.640410772243    -1.791070308958
    H           -0.603246708122    -1.448262570286    -1.062200263912
    C            0.463220644914    -1.247285757974    -0.940414916194

*** Psi4 exiting successfully. Buy a developer a beer!
