                               Psi4 1.1 release

  ==> Input File <==

--------------------------------------------------------------------------

memory 1000 mb

molecule butane {
  symmetry C1
  0 1
  H      1.604   0.760   -8.260
  H      1.745   2.388   -8.880
  H      2.043   1.024   -9.930
  C      2.142   1.395   -8.932
  H      4.169   2.051   -9.210
  H      3.731   1.788   -7.539
  C      3.631   1.416   -8.537
  H      3.665   -0.647   -7.940
  H      4.104   -0.384   -9.610
  C      4.203   -0.012   -8.612
  H      5.875   -0.743   -7.480
  H      5.941   0.969   -7.818
  H      6.292   -0.184   -9.082
  C      5.691   0.009   -8.218
  units Angstrom
}

dih_string = "7 10 14 13 250"
set optking fixed_dihedral = $dih_string

optimize('MP2/aug-cc-pvtz')
--------------------------------------------------------------------------

    Molecular point group: c1
  Charge       = 0
  Multiplicity = 1
  Basis Set: AUG-CC-PVTZ
    Blend: AUG-CC-PVTZ
  Basis Set: (AUG-CC-PVTZ AUX)
    Blend: AUG-CC-PVTZ-JKFIT
  @DF-RHF Final Energy:  -157.34753909093854
    Total Energy =                       -157.3475390909385396
  Basis Set: (AUG-CC-PVTZ AUX)
    Blend: AUG-CC-PVTZ-RI
    Molecular point group: c1
  Basis Set: AUG-CC-PVTZ
    Blend: AUG-CC-PVTZ
  Basis Set: (AUG-CC-PVTZ AUX)
    Blend: AUG-CC-PVTZ-JKFIT
  Basis Set: (AUG-CC-PVTZ AUX)
    Blend: AUG-CC-PVTZ-JKFIT
	 Reference Energy          =    -157.3475390909385396 [Eh]
	 Singles Energy            =      -0.0000000000000000 [Eh]
	 Same-Spin Energy          =      -0.1654804937578060 [Eh]
	 Opposite-Spin Energy      =      -0.6394460816401192 [Eh]
	 Correlation Energy        =      -0.8049265753979252 [Eh]
	 Total Energy              =    -158.1524656663364681 [Eh]
	 SCS Total Energy          =    -158.1700345534926271 [Eh]
  @DF-RHF Final Energy:  -157.35046272647466
    Total Energy =                       -157.3504627264746603
  @DF-RHF Final Energy:  -157.35137202383578
    Total Energy =                       -157.3513720238357791
  @DF-RHF Final Energy:  -157.35166642371439
    Total Energy =                       -157.3516664237143914
  Charge       = 0
  Multiplicity = 1
  Basis Set: AUG-CC-PVTZ
    Blend: AUG-CC-PVTZ
  Basis Set: (AUG-CC-PVTZ AUX)
    Blend: AUG-CC-PVTZ-JKFIT

    Orbital Energies (a.u.)
    -----------------------

    Doubly Occupied:

       1A    -11.211653     2A    -11.210868     3A    -11.205892
       4A    -11.205548     5A     -1.072702     6A     -0.980323
       7A     -0.861988     8A     -0.788783     9A     -0.638774
      10A     -0.583909    11A     -0.577889    12A     -0.569063
      13A     -0.511862    14A     -0.496566    15A     -0.470425
      16A     -0.457476    17A     -0.455351

  @DF-RHF Final Energy:  -157.35165121057958

   => Energetics <=

    Nuclear Repulsion Energy =            131.2846274357002301
    One-Electron Energy =                -470.6744117609496243
    Two-Electron Energy =                 182.0381331146697903
    DFT Exchange-Correlation Energy =       0.0000000000000000
    Empirical Dispersion Energy =           0.0000000000000000
    PCM Polarization Energy =               0.0000000000000000
    EFP Energy =                            0.0000000000000000
    Total Energy =                       -157.3516512105795755
  Basis Set: (AUG-CC-PVTZ AUX)
    Blend: AUG-CC-PVTZ-RI
    Molecular point group: c1
  Basis Set: AUG-CC-PVTZ
    Blend: AUG-CC-PVTZ
  Basis Set: (AUG-CC-PVTZ AUX)
    Blend: AUG-CC-PVTZ-JKFIT
  Basis Set: (AUG-CC-PVTZ AUX)
    Blend: AUG-CC-PVTZ-JKFIT
	 Reference Energy          =    -157.3516512105795755 [Eh]
	 Singles Energy            =      -0.0000000000000001 [Eh]
	 Same-Spin Energy          =      -0.1654400728437336 [Eh]
	 Opposite-Spin Energy      =      -0.6398474335588178 [Eh]
	 Correlation Energy        =      -0.8052875064025514 [Eh]
	 Total Energy              =    -158.1569387169821255 [Eh]

	 ================> DF-SCS-MP2 Energies <==================
	-----------------------------------------------------------
	 SCS Same-Spin Scale       =       0.3333333333333333 [-]
	 SCS Opposite-Spin Scale   =       1.2000000000000000 [-]
	 SCS Same-Spin Energy      =      -0.0551466909479112 [Eh]
	 SCS Opposite-Spin Energy  =      -0.7678169202705813 [Eh]
	 SCS Correlation Energy    =      -0.8229636112184926 [Eh]
	 SCS Total Energy          =    -158.1746148217980590 [Eh]
	-----------------------------------------------------------

  -Total Gradient:
     Atom            X                  Y                   Z
    ------   -----------------  -----------------  -----------------
       1       -0.000054831456    -0.000039165821     0.000034945722
       2       -0.000029166429     0.000062382380     0.000001417328
       3       -0.000018331136    -0.000024312002    -0.000071128340
       4        0.000173443958    -0.000028739985     0.000058451542
       5        0.000030437427     0.000008551499    -0.000043999818
       6       -0.000009728946     0.000002115349     0.000018629582
       7       -0.000366612973    -0.000211942800     0.001299770069
       8        0.000030302525    -0.000018941076     0.000001848122
       9        0.000008300197     0.000016599950    -0.000074867461
      10        0.000358111886    -0.000187629992    -0.001629582156
      11       -0.000012230190    -0.000010699236     0.000039633842
      12        0.000032435686     0.000081143173     0.000013426846
      13       -0.000072995011    -0.001832848020     0.000306289194
      14       -0.000069135537     0.002183486578     0.000045165527

  **** Optimization is complete! (in 5 steps) ****
    Final optimized geometry and variables:
    Molecular point group: c1

    Geometry (in Angstrom), charge = 0, multiplicity = 1:

    H           -2.353859706474     0.042631936601     0.296123271233
    H           -2.210838055270     1.688816162565    -0.311007255743
    H           -1.905170372992     0.324204603845    -1.380255403673
    C           -1.779779250923     0.691635523303    -0.363163873942
    H            0.244044452663     1.360839552684    -0.627853166671
    H           -0.203143204455     1.088717769673     1.040244180573
    C           -0.315350516055     0.693144130444     0.029779002021
    H           -0.253259360907    -1.341332314992     0.649424536802
    H            0.170057953735    -1.101836314103    -1.024008915392
    C            0.305532910819    -0.690700273788    -0.023665427559
    H            2.012732685538    -1.455079546853     1.097864100189
    H            2.084089487239     0.266967997892     0.775605336972
    H            2.423919259928    -0.891228845681    -0.503414750549
    C            1.788876837485    -0.692626516327     0.355981842540

*** Psi4 exiting successfully. Buy a developer a beer!
