                               Psi4 1.1 release

  ==> Input File <==

--------------------------------------------------------------------------

memory 1000 mb

molecule butane {
  symmetry C1
  0 1
  H      4.615   2.075   -10.329
  H      4.156   3.373   -9.253
  H      5.530   2.365   -8.869
  C      4.554   2.381   -9.306
  H      3.570   1.722   -7.513
  H      2.654   1.432   -8.973
  C      3.631   1.416   -8.537
  H      3.665   -0.647   -7.940
  H      4.104   -0.384   -9.610
  C      4.203   -0.012   -8.612
  H      6.088   -0.983   -8.270
  H      5.791   0.381   -7.220
  H      6.230   0.644   -8.890
  C      5.691   0.009   -8.218
  units Angstrom
}

dih_string = "14 10 7 4 50"
set optking fixed_dihedral = $dih_string

optimize('MP2/aug-cc-pvtz')
--------------------------------------------------------------------------

    Molecular point group: c1
  Charge       = 0
  Multiplicity = 1
  Basis Set: AUG-CC-PVTZ
    Blend: AUG-CC-PVTZ
  Basis Set: (AUG-CC-PVTZ AUX)
    Blend: AUG-CC-PVTZ-JKFIT
  @DF-RHF Final Energy:  -157.34603549234666
    Total Energy =                       -157.3460354923466582
  Basis Set: (AUG-CC-PVTZ AUX)
    Blend: AUG-CC-PVTZ-RI
    Molecular point group: c1
  Basis Set: AUG-CC-PVTZ
    Blend: AUG-CC-PVTZ
  Basis Set: (AUG-CC-PVTZ AUX)
    Blend: AUG-CC-PVTZ-JKFIT
  Basis Set: (AUG-CC-PVTZ AUX)
    Blend: AUG-CC-PVTZ-JKFIT
	 Reference Energy          =    -157.3460354923466582 [Eh]
	 Singles Energy            =      -0.0000000000000001 [Eh]
	 Same-Spin Energy          =      -0.1667280351329255 [Eh]
	 Opposite-Spin Energy      =      -0.6404334056283013 [Eh]
	 Correlation Energy        =      -0.8071614407612270 [Eh]
	 Total Energy              =    -158.1531969331078926 [Eh]
	 SCS Total Energy          =    -158.1701315908115930 [Eh]
  @DF-RHF Final Energy:  -157.35128065356264
    Total Energy =                       -157.3512806535626396
  @DF-RHF Final Energy:  -157.35271408937706
    Total Energy =                       -157.3527140893770593
  @DF-RHF Final Energy:  -157.35346303895963
    Total Energy =                       -157.3534630389596316
  @DF-RHF Final Energy:  -157.35366982733279
    Total Energy =                       -157.3536698273327943
  @DF-RHF Final Energy:  -157.35371453940280
    Total Energy =                       -157.3537145394028016
  @DF-RHF Final Energy:  -157.35372779401246
    Total Energy =                       -157.3537277940124568
  @DF-RHF Final Energy:  -157.35370864634646
    Total Energy =                       -157.3537086463464618
  @DF-RHF Final Energy:  -157.35370880702732
    Total Energy =                       -157.3537088070273171
  Charge       = 0
  Multiplicity = 1
  Basis Set: AUG-CC-PVTZ
    Blend: AUG-CC-PVTZ
  Basis Set: (AUG-CC-PVTZ AUX)
    Blend: AUG-CC-PVTZ-JKFIT

    Orbital Energies (a.u.)
    -----------------------

    Doubly Occupied:

       1A    -11.211681     2A    -11.211057     3A    -11.205421
       4A    -11.205419     5A     -1.074311     6A     -0.975937
       7A     -0.876497     8A     -0.773093     9A     -0.630014
      10A     -0.621192    11A     -0.571654    12A     -0.536951
      13A     -0.529914    14A     -0.504399    15A     -0.461154
      16A     -0.459071    17A     -0.455807

  @DF-RHF Final Energy:  -157.35370349536302

   => Energetics <=

    Nuclear Repulsion Energy =            133.8473911650860657
    One-Electron Energy =                -475.7950474125592564
    Two-Electron Energy =                 184.5939527521101979
    DFT Exchange-Correlation Energy =       0.0000000000000000
    Empirical Dispersion Energy =           0.0000000000000000
    PCM Polarization Energy =               0.0000000000000000
    EFP Energy =                            0.0000000000000000
    Total Energy =                       -157.3537034953630211
  Basis Set: (AUG-CC-PVTZ AUX)
    Blend: AUG-CC-PVTZ-RI
    Molecular point group: c1
  Basis Set: AUG-CC-PVTZ
    Blend: AUG-CC-PVTZ
  Basis Set: (AUG-CC-PVTZ AUX)
    Blend: AUG-CC-PVTZ-JKFIT
  Basis Set: (AUG-CC-PVTZ AUX)
    Blend: AUG-CC-PVTZ-JKFIT
	 Reference Energy          =    -157.3537034953630211 [Eh]
	 Singles Energy            =      -0.0000000000000001 [Eh]
	 Same-Spin Energy          =      -0.1659491456213264 [Eh]
	 Opposite-Spin Energy      =      -0.6400453062773729 [Eh]
	 Correlation Energy        =      -0.8059944518986993 [Eh]
	 Total Energy              =    -158.1596979472617193 [Eh]

	 ================> DF-SCS-MP2 Energies <==================
	-----------------------------------------------------------
	 SCS Same-Spin Scale       =       0.3333333333333333 [-]
	 SCS Opposite-Spin Scale   =       1.2000000000000000 [-]
	 SCS Same-Spin Energy      =      -0.0553163818737755 [Eh]
	 SCS Opposite-Spin Energy  =      -0.7680543675328474 [Eh]
	 SCS Correlation Energy    =      -0.8233707494066229 [Eh]
	 SCS Total Energy          =    -158.1770742447696421 [Eh]
	-----------------------------------------------------------

  -Total Gradient:
     Atom            X                  Y                   Z
    ------   -----------------  -----------------  -----------------
       1        0.000001257490     0.000006017031     0.000003302889
       2        0.000003311373    -0.000009160195     0.000002175656
       3       -0.000010777310    -0.000006366805     0.000002187733
       4        0.000895366022     0.000330361212     0.001484349888
       5        0.000002182233     0.000003192693     0.000001218142
       6        0.000011638465    -0.000002393270     0.000005899715
       7       -0.001057644683    -0.000378806374    -0.002771955775
       8        0.000004996070     0.000009218857    -0.000008342409
       9        0.000003389822    -0.000000919841    -0.000001662628
      10       -0.000335488756    -0.000183611738     0.002966230498
      11       -0.000004355690     0.000008834514    -0.000002064328
      12        0.000004133361    -0.000003714464    -0.000003955874
      13       -0.000012048139    -0.000002900748     0.000000895528
      14        0.000494039740     0.000230249125    -0.001678279032

  **** Optimization is complete! (in 10 steps) ****
    Final optimized geometry and variables:
    Molecular point group: c1

    Geometry (in Angstrom), charge = 0, multiplicity = 1:

    H            0.167291167830     1.155894074968    -1.664065303756
    H           -0.520867141999     2.446705838434    -0.686318929334
    H            0.932838027761     1.621861386553    -0.150651894155
    C           -0.025820140396     1.479420467149    -0.641752434902
    H           -0.990471734370     0.782965669275     1.134074566594
    H           -1.884473566703     0.452554293110    -0.329951583900
    C           -0.881480154402     0.464739679042     0.095648531548
    H           -0.915922975015    -1.583235790448     0.720666727117
    H           -0.417698062632    -1.351525871984    -0.937603898453
    C           -0.314613832685    -0.947671976037     0.071232105748
    H            1.472703166870    -2.062394517363     0.553517917769
    H            1.297697441165    -0.564392316347     1.459667873084
    H            1.788033936293    -0.523288546801    -0.228967387090
    C            1.143880733043    -1.027994814734     0.485758988106

*** Psi4 exiting successfully. Buy a developer a beer!
