                              Psi4 1.0.0 Driver

  ==> Input File <==

--------------------------------------------------------------------------

memory 1000 mb

molecule butane {
  symmetry C1
  0 1
  H      1.604   0.760   -8.260
  H      1.745   2.388   -8.880
  H      2.043   1.024   -9.930
  C      2.142   1.395   -8.932
  H      4.169   2.051   -9.210
  H      3.731   1.788   -7.539
  C      3.631   1.416   -8.537
  H      4.720   -0.237   -7.703
  H      3.404   -0.710   -8.749
  C      4.203   -0.012   -8.612
  H      5.578   -1.104   -9.849
  H      5.980   0.585   -9.661
  H      4.664   0.112   -10.707
  C      5.180   -0.113   -9.797
  units Angstrom
}

dih_string = "4 7 10 14 110"
set optking fixed_dihedral = $dih_string

optimize('MP2/6-31G(d)')
--------------------------------------------------------------------------

    Molecular point group: c1
  Charge       = 0
  Multiplicity = 1
  Basis Set: 6-31G(D)
  Basis Set:
  @DF-RHF Final Energy:  -157.28825365536346
    Total Energy =                       -157.2882536553634338
  Basis Set:
    Molecular point group: c1
  Basis Set: 6-31G(D)
  Basis Set:
  Basis Set:
	 Reference Energy          =    -157.2882536553634623 [Eh]
	 Singles Energy            =      -0.0000000000000000 [Eh]
	 Same-Spin Energy          =      -0.1244417755716696 [Eh]
	 Opposite-Spin Energy      =      -0.4204214826832516 [Eh]
	 Correlation Energy        =      -0.5448632582549211 [Eh]
	 Total Energy              =    -157.8331169136183973 [Eh]
	 SCS Total Energy          =    -157.8342400264405967 [Eh]
  Basis Set: 6-31G(D)
  Basis Set:
  @DF-RHF Final Energy:  -157.29122071232456
    Total Energy =                       -157.2912207123247299
  Basis Set:
  Basis Set: 6-31G(D)
  Basis Set:
  @DF-RHF Final Energy:  -157.29207791701896
    Total Energy =                       -157.2920779170189292
  @DF-RHF Final Energy:  -157.29236074547507
    Total Energy =                       -157.2923607454749231
  @DF-RHF Final Energy:  -157.29237603534153
    Total Energy =                       -157.2923760353415901
	 Singles Energy            =      -0.0000000000000000 [Eh]
	 Same-Spin Energy          =      -0.1242972701370909 [Eh]
	 Opposite-Spin Energy      =      -0.4224292150560418 [Eh]
	 Correlation Energy        =      -0.5467264851931326 [Eh]
	 Total Energy              =    -157.8391025205346523 [Eh]
	 SCS Total Energy          =    -157.8407235167878184 [Eh]
  Charge       = 0
  Multiplicity = 1
  Basis Set: 6-31G(D)
  Basis Set:

    Orbital Energies (a.u.)
    -----------------------

    Doubly Occupied:

       1A    -11.215480     2A    -11.214920     3A    -11.210550
       4A    -11.210543     5A     -1.067969     6A     -0.978357
       7A     -0.861582     8A     -0.784542     9A     -0.626537
      10A     -0.604203    11A     -0.578419    12A     -0.546559
      13A     -0.511757    14A     -0.507202    15A     -0.466750
      16A     -0.453931    17A     -0.453044

  @DF-RHF Final Energy:  -157.29238314443060

   => Energetics <=

    Nuclear Repulsion Energy =            131.3335835257935003
    One-Electron Energy =                -470.6672422999137098
    Two-Electron Energy =                 182.0412756296894941
    DFT Exchange-Correlation Energy =       0.0000000000000000
    Empirical Dispersion Energy =           0.0000000000000000
    PCM Polarization Energy =               0.0000000000000000
    EFP Energy =                            0.0000000000000000
    Total Energy =                       -157.2923831444306870
  Basis Set:
    Molecular point group: c1
  Basis Set: 6-31G(D)
  Basis Set:
  Basis Set:
	 Reference Energy          =    -157.2923831444306018 [Eh]
	 Singles Energy            =      -0.0000000000000000 [Eh]
	 Same-Spin Energy          =      -0.1242965804616949 [Eh]
	 Opposite-Spin Energy      =      -0.4224220667006661 [Eh]
	 Correlation Energy        =      -0.5467186471623610 [Eh]
	 Total Energy              =    -157.8391017915929524 [Eh]

	 ================> DF-SCS-MP2 Energies <==================
	-----------------------------------------------------------
	 SCS Same-Spin Scale       =       0.3333333333333333 [-]
	 SCS Opposite-Spin Scale   =       1.2000000000000000 [-]
	 SCS Same-Spin Energy      =      -0.0414321934872316 [Eh]
	 SCS Opposite-Spin Energy  =      -0.5069064800407993 [Eh]
	 SCS Correlation Energy    =      -0.5483386735280309 [Eh]
	 SCS Total Energy          =    -157.8407218179586380 [Eh]
	-----------------------------------------------------------

  -Total Gradient:
     Atom            X                  Y                   Z
    ------   -----------------  -----------------  -----------------
       1       -0.000016285231    -0.000004128879    -0.000006791271
       2       -0.000008582920     0.000004808070     0.000003192005
       3        0.000017666606     0.000004624319     0.000004320351
       4       -0.000357530124    -0.000303195621     0.001599185768
       5        0.000003700077     0.000015047614     0.000001692997
       6       -0.000011561528     0.000002077952    -0.000025498939
       7        0.000978679240     0.000655809484    -0.001801101381
       8       -0.000005106871    -0.000006251893    -0.000026844902
       9       -0.000001390951    -0.000014441018     0.000005728105
      10       -0.001813731010    -0.000854847563    -0.000781885334
      11        0.000008918720    -0.000005145465    -0.000001508509
      12        0.000008513317     0.000001917381    -0.000015005956
      13       -0.000011523391    -0.000003516398     0.000015036066
      14        0.001208234065     0.000507242018     0.001029481001

  **** Optimization is complete! (in 6 steps) ****
    Final optimized geometry and variables:
    Molecular point group: c1

    Geometry (in Angstrom), charge = 0, multiplicity = 1:

    H           -2.241314637392     0.073755860940     0.752649095760
    H           -2.109621512350     1.721052877948     0.121294681309
    H           -1.817476613651     0.338662343082    -0.942288943212
    C           -1.675155692699     0.718315140160     0.074316753089
    H            0.340776935044     1.431085708896    -0.197694381298
    H           -0.093232817142     1.116460282907     1.467568727023
    C           -0.196070774104     0.727280565009     0.448824808493
    H            0.980194591619    -0.905188293487     1.276240624518
    H           -0.327585295843    -1.427943929673     0.238505649118
    C            0.453090000048    -0.666059372108     0.346265181777
    H            1.860343469624    -1.780431592918    -0.892418720525
    H            2.260999092814    -0.069072749899    -0.691753815121
    H            0.941972836543    -0.547201354201    -1.766090062869
    C            1.435348770400    -0.775436093802    -0.816161067106

*** Psi4 exiting successfully. Buy a developer a beer!
