                               Psi4 1.1 release

  ==> Input File <==

--------------------------------------------------------------------------

memory 5 Gb

molecule phepyrF {
  symmetry C1
  0 1
  C      1.885   -1.036   -0.112
  C      0.807   -0.463   0.561
  C      2.921   -1.631   0.608
  C      0.764   -0.484   1.955
  C      5.179   -1.622   2.869
  C      3.770   -3.513   3.339
  C      6.178   -2.255   3.592
  C      4.831   -4.062   4.041
  C      2.878   -1.652   2.002
  C      3.955   -2.270   2.745
  C      1.800   -1.079   2.676
  N      6.035   -3.463   4.183
  F      1.744   -1.089   4.016
  H      1.918   -1.020   -1.198
  H      0.000   -0.000   -0.000
  H      3.755   -2.073   0.068
  H      -0.076   -0.038   2.480
  H      5.362   -0.651   2.421
  H      2.829   -4.049   3.263
  H      7.150   -1.791   3.720
  H      4.738   -5.030   4.521
  units Angstrom
}

dih_string = "3 9 10 5 75"
set optking fixed_dihedral = $dih_string

optimize('MP2/aug-cc-PVTZ')
--------------------------------------------------------------------------

    Molecular point group: c1
  Charge       = 0
  Multiplicity = 1
  Basis Set: AUG-CC-PVTZ
    Blend: AUG-CC-PVTZ
  Basis Set: (AUG-CC-PVTZ AUX)
    Blend: AUG-CC-PVTZ-JKFIT
  @DF-RHF Final Energy:  -575.28284090795069
    Total Energy =                       -575.2828409079506855
  Basis Set: (AUG-CC-PVTZ AUX)
    Blend: AUG-CC-PVTZ-RI
    Molecular point group: c1
  Basis Set: AUG-CC-PVTZ
    Blend: AUG-CC-PVTZ
  Basis Set: (AUG-CC-PVTZ AUX)
    Blend: AUG-CC-PVTZ-JKFIT
  Basis Set: (AUG-CC-PVTZ AUX)
    Blend: AUG-CC-PVTZ-JKFIT
	 Reference Energy          =    -575.2828409079506855 [Eh]
	 Singles Energy            =      -0.0000000000000002 [Eh]
	 Same-Spin Energy          =      -0.6075446363662791 [Eh]
	 Opposite-Spin Energy      =      -1.8318892463900367 [Eh]
	 Correlation Energy        =      -2.4394338827563158 [Eh]
	 Total Energy              =    -577.7222747907070470 [Eh]
	 SCS Total Energy          =    -577.6836228824074624 [Eh]
  @DF-RHF Final Energy:  -575.28856292046419
    Total Energy =                       -575.2885629204641873
  @DF-RHF Final Energy:  -575.28957033718905
    Total Energy =                       -575.2895703371890477
  @DF-RHF Final Energy:  -575.28946981441595
    Total Energy =                       -575.2894698144159520
  @DF-RHF Final Energy:  -575.28936985624625
    Total Energy =                       -575.2893698562462532
  Charge       = 0
  Multiplicity = 1
  Basis Set: AUG-CC-PVTZ
    Blend: AUG-CC-PVTZ
  Basis Set: (AUG-CC-PVTZ AUX)
    Blend: AUG-CC-PVTZ-JKFIT

    Orbital Energies (a.u.)
    -----------------------

    Doubly Occupied:

       1A    -26.315624     2A    -15.565001     3A    -11.336327
       4A    -11.274076     5A    -11.273549     6A    -11.268560
       7A    -11.260509     8A    -11.256019     9A    -11.255553
      10A    -11.250511    11A    -11.246801    12A    -11.240494
      13A    -11.239725    14A     -1.634404    15A     -1.261247
      16A     -1.185576    17A     -1.115062    18A     -1.037882
      19A     -1.035983    20A     -1.028689    21A     -0.891685
      22A     -0.865461    23A     -0.855297    24A     -0.825617
      25A     -0.755212    26A     -0.723466    27A     -0.711160
      28A     -0.702466    29A     -0.671243    30A     -0.669199
      31A     -0.652411    32A     -0.626048    33A     -0.612663
      34A     -0.599259    35A     -0.591756    36A     -0.549621
      37A     -0.535633    38A     -0.529738    39A     -0.517609
      40A     -0.510740    41A     -0.419615    42A     -0.387799
      43A     -0.357033    44A     -0.349226    45A     -0.346551

  @DF-RHF Final Energy:  -575.28938708470628

   => Energetics <=

    Nuclear Repulsion Energy =            715.2605283967852756
    One-Electron Energy =               -2202.4236273607693875
    Two-Electron Energy =                 911.8737118792778347
    DFT Exchange-Correlation Energy =       0.0000000000000000
    Empirical Dispersion Energy =           0.0000000000000000
    PCM Polarization Energy =               0.0000000000000000
    EFP Energy =                            0.0000000000000000
    Total Energy =                       -575.2893870847062772
  Basis Set: (AUG-CC-PVTZ AUX)
    Blend: AUG-CC-PVTZ-RI
    Molecular point group: c1
  Basis Set: AUG-CC-PVTZ
    Blend: AUG-CC-PVTZ
  Basis Set: (AUG-CC-PVTZ AUX)
    Blend: AUG-CC-PVTZ-JKFIT
  Basis Set: (AUG-CC-PVTZ AUX)
    Blend: AUG-CC-PVTZ-JKFIT
	 Reference Energy          =    -575.2893870847062772 [Eh]
	 Singles Energy            =      -0.0000000000000000 [Eh]
	 Same-Spin Energy          =      -0.6066752625704454 [Eh]
	 Opposite-Spin Energy      =      -1.8293831245119054 [Eh]
	 Correlation Energy        =      -2.4360583870823507 [Eh]
	 Total Energy              =    -577.7254454717885892 [Eh]

	 ================> DF-SCS-MP2 Energies <==================
	-----------------------------------------------------------
	 SCS Same-Spin Scale       =       0.3333333333333333 [-]
	 SCS Opposite-Spin Scale   =       1.2000000000000000 [-]
	 SCS Same-Spin Energy      =      -0.2022250875234818 [Eh]
	 SCS Opposite-Spin Energy  =      -2.1952597494142863 [Eh]
	 SCS Correlation Energy    =      -2.3974848369377679 [Eh]
	 SCS Total Energy          =    -577.6868719216440695 [Eh]
	-----------------------------------------------------------

  -Total Gradient:
     Atom            X                  Y                   Z
    ------   -----------------  -----------------  -----------------
       1        0.000015197432     0.000009441436     0.000037995074
       2        0.000005224246    -0.000013888182    -0.000010564898
       3       -0.000872489246    -0.001512668639    -0.000123845949
       4       -0.000009052526     0.000000278409    -0.000014993555
       5       -0.000503299335     0.000815527110     0.001441913285
       6        0.000040710072    -0.000073035210    -0.000001532675
       7       -0.000009208711     0.000035161263     0.000060481394
       8        0.000004623919     0.000011171584     0.000038803928
       9        0.001031675175     0.002652497677     0.000972272280
      10        0.000320011040    -0.001937541132    -0.002279503759
      11        0.000038090371     0.000027076498    -0.000162898194
      12       -0.000009997926    -0.000018788477    -0.000057229676
      13       -0.000049991326     0.000027956643     0.000111072624
      14        0.000000530409    -0.000003806866    -0.000007294620
      15       -0.000004294516    -0.000000018797     0.000002158455
      16        0.000013103195    -0.000012319293     0.000010556556
      17        0.000004929298    -0.000002987826     0.000017775522
      18        0.000000837203     0.000006267752    -0.000006947190
      19       -0.000005855557    -0.000009244586     0.000000252583
      20        0.000011950262     0.000016289847    -0.000025212800
      21       -0.000022693480    -0.000017369205    -0.000003258383

  **** Optimization is complete! (in 6 steps) ****
    Final optimized geometry and variables:
    Molecular point group: c1

    Geometry (in Angstrom), charge = 0, multiplicity = 1:

    C           -1.391344058090     0.867162758891    -2.668219831163
    C           -2.470494901465     1.416489683246    -1.989753942201
    C           -0.352611807985     0.284785812741    -1.957575846400
    C           -2.512328650312     1.381895545557    -0.603551534240
    C            1.951133215740     0.226859635225     0.335780676131
    C            0.535512056069    -1.619000683330     0.817562621138
    C            2.945232346263    -0.409401683914     1.064098771648
    C            1.588020004943    -2.176389799303     1.526732164505
    C           -0.368039111978     0.244194091821    -0.565259056253
    C            0.714955089891    -0.390357106844     0.194985600277
    C           -1.466084339703     0.795080791955     0.078466595269
    N            2.782736825163    -1.594421762431     1.656008722155
    F           -1.508836232870     0.762313638958     1.422774480406
    H           -1.361436310995     0.888278733182    -3.746116666476
    H           -3.282744547326     1.870796193409    -2.535382525498
    H            0.488485452324    -0.151214711688    -2.475692115642
    H           -3.336092027852     1.800014581588    -0.048326670893
    H            2.134530272964     1.190089346692    -0.116213149189
    H           -0.410967156017    -2.133441704206     0.747151291003
    H            3.914443164034     0.054661846084     1.181148837863
    H            1.468011147535    -3.133963167119     2.013548152824

*** Psi4 exiting successfully. Buy a developer a beer!
