                              Psi4 1.0.0 Driver

  ==> Input File <==

--------------------------------------------------------------------------

memory 1000 mb

molecule butane {
  symmetry C1
  0 1
  H      1.604   0.760   -8.260
  H      1.745   2.388   -8.880
  H      2.043   1.024   -9.930
  C      2.142   1.395   -8.932
  H      4.169   2.051   -9.210
  H      3.731   1.788   -7.539
  C      3.631   1.416   -8.537
  H      4.429   -0.252   -9.630
  H      5.096   -0.070   -8.026
  C      4.203   -0.012   -8.612
  H      3.563   -2.002   -8.119
  H      2.273   -0.953   -8.653
  H      2.939   -0.771   -7.049
  C      3.166   -1.010   -8.067
  units Angstrom
}

dih_string = "4 7 10 14 320"
set optking fixed_dihedral = $dih_string

optimize('B3LYP/cc-PVDZ')
--------------------------------------------------------------------------

    Molecular point group: c1
  Charge       = 0
  Multiplicity = 1
  Basis Set: CC-PVDZ
   => B3LYP Composite Functional <=
  Basis Set:
  @DF-RKS Final Energy:  -158.44129761907413
    Total Energy =                       -158.4412976190741347
    Molecular point group: c1
  Basis Set: CC-PVDZ
  Basis Set:
   => B3LYP Composite Functional <=
  Basis Set: CC-PVDZ
   => B3LYP Composite Functional <=
  Basis Set:
  @DF-RKS Final Energy:  -158.44913035971805
    Total Energy =                       -158.4491303597180547
  Basis Set: CC-PVDZ
  Basis Set:
   => B3LYP Composite Functional <=
  Basis Set: CC-PVDZ
   => B3LYP Composite Functional <=
  Basis Set:
  @DF-RKS Final Energy:  -158.45311881482507
    Total Energy =                       -158.4531188148250749
  Basis Set: CC-PVDZ
  Basis Set:
  @DF-RKS Final Energy:  -158.45467618697754
    Total Energy =                       -158.4546761869775366
  @DF-RKS Final Energy:  -158.45520581123782
    Total Energy =                       -158.4552058112378177
  @DF-RKS Final Energy:  -158.45534630150507
    Total Energy =                       -158.4553463015050738
  @DF-RKS Final Energy:  -158.45538866367090
    Total Energy =                       -158.4553886636709024
  @DF-RKS Final Energy:  -158.45539752977425
    Total Energy =                       -158.4553975297742454
  @DF-RKS Final Energy:  -158.45539760890878
    Total Energy =                       -158.4553976089087826
  @DF-RKS Final Energy:  -158.45539768163039
    Total Energy =                       -158.4553976816303873
  @DF-RKS Final Energy:  -158.45539771657968
    Total Energy =                       -158.4553977165796823
  @DF-RKS Final Energy:  -158.45539780123784
    Total Energy =                       -158.4553978012378366
  @DF-RKS Final Energy:  -158.45539768894949
    Total Energy =                       -158.4553976889494891
  @DF-RKS Final Energy:  -158.45539503934836
    Total Energy =                       -158.4553950393483603
  @DF-RKS Final Energy:  -158.45539686844700
    Total Energy =                       -158.4553968684469965
  @DF-RKS Final Energy:  -158.45539767134875
    Total Energy =                       -158.4553976713487486
  @DF-RKS Final Energy:  -158.45540020631643
    Total Energy =                       -158.4554002063164262
  @DF-RKS Final Energy:  -158.45512999600984
    Total Energy =                       -158.4551299960098447
  @DF-RKS Final Energy:  -158.45481379816360
    Total Energy =                       -158.4548137981635989
  @DF-RKS Final Energy:  -158.45529772564635
    Total Energy =                       -158.4552977256463464
  @DF-RKS Final Energy:  -158.45530751293273
    Total Energy =                       -158.4553075129327340
  @DF-RKS Final Energy:  -158.45532767814532
    Total Energy =                       -158.4553276781453235
  @DF-RKS Final Energy:  -158.45533070987074
    Total Energy =                       -158.4553307098707364
  @DF-RKS Final Energy:  -158.45533167303833
    Total Energy =                       -158.4553316730383301
  @DF-RKS Final Energy:  -158.45487303038641
    Total Energy =                       -158.4548730303864090
  @DF-RKS Final Energy:  -158.45532780969563
    Total Energy =                       -158.4553278096956319
  @DF-RKS Final Energy:  -158.45532293399674
    Total Energy =                       -158.4553229339967402
  @DF-RKS Final Energy:  -158.45532563593918
    Total Energy =                       -158.4553256359391753
  @DF-RKS Final Energy:  -158.45532628850628
    Total Energy =                       -158.4553262885062850
  @DF-RKS Final Energy:  -158.45532551192045
    Total Energy =                       -158.4553255119204493
  @DF-RKS Final Energy:  -158.45532527825875
    Total Energy =                       -158.4553252782587549
  @DF-RKS Final Energy:  -158.45493139216327
    Total Energy =                       -158.4549313921632745
  @DF-RKS Final Energy:  -158.45406923949088
    Total Energy =                       -158.4540692394908774
  @DF-RKS Final Energy:  -158.45481104677486
    Total Energy =                       -158.4548110467748643
  @DF-RKS Final Energy:  -158.45481103680928
    Total Energy =                       -158.4548110368092750
  @DF-RKS Final Energy:  -158.45510887909191
    Total Energy =                       -158.4551088790919096
  @DF-RKS Final Energy:  -158.45522899609500
    Total Energy =                       -158.4552289960950020
   => B3LYP Composite Functional <=
  Basis Set:
  @DF-RKS Final Energy:  -158.45527756306467
    Total Energy =                       -158.4552775630646693
  Basis Set: CC-PVDZ
  Basis Set:
   => B3LYP Composite Functional <=
  Basis Set: CC-PVDZ
   => B3LYP Composite Functional <=
  Basis Set:
  @DF-RKS Final Energy:  -158.45529019529798
    Total Energy =                       -158.4552901952979767
  Basis Set: CC-PVDZ
  Basis Set:
   => B3LYP Composite Functional <=
  Charge       = 0
  Multiplicity = 1
  Basis Set: CC-PVDZ
   => B3LYP Composite Functional <=
  Basis Set:

    Orbital Energies (a.u.)
    -----------------------

    Doubly Occupied:

       1A    -10.180485     2A    -10.180291     3A    -10.175127
       4A    -10.175024     5A     -0.788823     6A     -0.716036
       7A     -0.639897     8A     -0.558663     9A     -0.456140
      10A     -0.447858    11A     -0.409098    12A     -0.385643
      13A     -0.376415    14A     -0.356276    15A     -0.325699
      16A     -0.321792    17A     -0.312108

  @DF-RKS Final Energy:  -158.45530360975857

   => Energetics <=

    Nuclear Repulsion Energy =            131.9595127647142192
    One-Electron Energy =                -472.4197803776311844
    Two-Electron Energy =                 202.5900195490164606
    DFT Exchange-Correlation Energy =     -20.5850555458581077
    Empirical Dispersion Energy =           0.0000000000000000
    PCM Polarization Energy =               0.0000000000000000
    EFP Energy =                            0.0000000000000000
    Total Energy =                       -158.4553036097585732
    Molecular point group: c1
  Basis Set: CC-PVDZ
  Basis Set:
   => B3LYP Composite Functional <=

  -Total Gradient:
     Atom            X                  Y                   Z
    ------   -----------------  -----------------  -----------------
       1       -0.000123347376    -0.000095461522     0.000158012603
       2        0.000871594955    -0.001892738373     0.000080565303
       3        0.000311654436    -0.000063478381     0.000209393876
       4       -0.002448363193     0.001663707786     0.003198991200
       5       -0.000366642819     0.000015610889     0.000263396764
       6       -0.000148911796    -0.000527151316     0.000008268915
       7        0.001397314473     0.002089050400    -0.006924785935
       8        0.000248851726     0.000313799661     0.000738722580
       9       -0.000019286707     0.000006977672     0.000156842079
      10        0.001206698832    -0.001097279173     0.004967053310
      11       -0.000596759132     0.001580359949     0.000037626905
      12        0.000061851061     0.000597602185     0.000228645049
      13       -0.000050604487     0.000109759736    -0.000390069702
      14       -0.000366244053    -0.002706665629    -0.002732925873

    Molecular point group: c1

    Geometry (in Angstrom), charge = 0, multiplicity = 1:

    H           -1.804998977951     0.576377353706     0.270152422680
    H           -1.447489865762     2.137146430095    -0.496595400753
    H           -1.327692891908     0.637702460443    -1.441845202010
    C           -1.141598159800     1.082673826467    -0.448775177391
    H            0.952658120426     1.597895375571    -0.701528506841
    H            0.439489154104     1.393000314653     0.970707272401
    C            0.332227632959     0.966309107361    -0.043960321760
    H            1.190332139498    -0.747407676847    -1.065558252536
    H            1.854069623983    -0.461167062628     0.538544827729
    C            0.909899446974    -0.467598260356    -0.033292609359
    H            0.483445083600    -2.526528128463     0.542900838811
    H           -0.930205297693    -1.657774122203    -0.093496628748
    H           -0.345277615032    -1.320845444668     1.550101756935
    C           -0.021946238582    -1.550175649624     0.519864995761

*** Psi4 exiting successfully. Buy a developer a beer!
