                               Psi4 1.1 release

  ==> Input File <==

--------------------------------------------------------------------------

memory 5 Gb

molecule phepyrOH_neutral {
  symmetry C1
  0 1
  C      1.885   -1.036   -0.112
  C      2.878   -1.652   2.002
  C      0.807   -0.463   0.561
  C      1.800   -1.079   2.676
  C      4.519   -3.473   0.293
  C      4.639   -1.551   -1.148
  C      5.591   -4.000   -0.409
  C      5.707   -2.164   -1.785
  C      2.921   -1.631   0.608
  C      4.040   -2.225   -0.090
  C      0.764   -0.484   1.955
  N      6.200   -3.375   -1.441
  O      -0.288   0.076   2.612
  H      1.904   -1.012   -1.199
  H      3.678   -2.112   2.578
  H      0.003   -0.001   -0.006
  H      1.772   -1.098   3.762
  H      4.076   -4.030   1.113
  H      4.293   -0.576   -1.475
  H      6.001   -4.971   -0.150
  H      6.210   -1.679   -2.615
  H      -0.175   -0.018   3.571
  units Angstrom
}

dih_string = "1 9 10 5 225"
set optking fixed_dihedral = $dih_string

optimize('MP2/aug-cc-PVTZ')
--------------------------------------------------------------------------

    Molecular point group: c1
  Charge       = 0
  Multiplicity = 1
  Basis Set: AUG-CC-PVTZ
    Blend: AUG-CC-PVTZ
  Basis Set: (AUG-CC-PVTZ AUX)
    Blend: AUG-CC-PVTZ-JKFIT
  @DF-RHF Final Energy:  -551.28695738259853
    Total Energy =                       -551.2869573825985299
  Basis Set: (AUG-CC-PVTZ AUX)
    Blend: AUG-CC-PVTZ-RI
    Molecular point group: c1
  Basis Set: AUG-CC-PVTZ
    Blend: AUG-CC-PVTZ
  Basis Set: (AUG-CC-PVTZ AUX)
    Blend: AUG-CC-PVTZ-JKFIT
  Basis Set: (AUG-CC-PVTZ AUX)
    Blend: AUG-CC-PVTZ-JKFIT
	 Reference Energy          =    -551.2869573825985299 [Eh]
	 Singles Energy            =      -0.0000000000000005 [Eh]
	 Same-Spin Energy          =      -0.6048222649171592 [Eh]
	 Opposite-Spin Energy      =      -1.8304727758941610 [Eh]
	 Correlation Energy        =      -2.4352950408113205 [Eh]
	 Total Energy              =    -553.7222524234098273 [Eh]
	 SCS Total Energy          =    -553.6851321353105959 [Eh]
  @DF-RHF Final Energy:  -551.29238234286095
    Total Energy =                       -551.2923823428609467
  @DF-RHF Final Energy:  -551.29336464615665
    Total Energy =                       -551.2933646461566468
  @DF-RHF Final Energy:  -551.29328776025943
    Total Energy =                       -551.2932877602594317
  @DF-RHF Final Energy:  -551.29325065267699
    Total Energy =                       -551.2932506526769885
  Charge       = 0
  Multiplicity = 1
  Basis Set: AUG-CC-PVTZ
    Blend: AUG-CC-PVTZ
  Basis Set: (AUG-CC-PVTZ AUX)
    Blend: AUG-CC-PVTZ-JKFIT

    Orbital Energies (a.u.)
    -----------------------

    Doubly Occupied:

       1A    -20.601594     2A    -15.560137     3A    -11.312958
       4A    -11.271240     5A    -11.271146     6A    -11.263904
       7A    -11.252614     8A    -11.250518     9A    -11.245362
      10A    -11.243698    11A    -11.237211    12A    -11.235257
      13A    -11.234992    14A     -1.418816    15A     -1.257485
      16A     -1.175187    17A     -1.105251    18A     -1.038407
      19A     -1.030486    20A     -1.012863    21A     -0.881400
      22A     -0.870918    23A     -0.845763    24A     -0.812383
      25A     -0.748544    26A     -0.725904    27A     -0.684371
      28A     -0.660498    29A     -0.657746    30A     -0.636344
      31A     -0.615013    32A     -0.605222    33A     -0.603212
      34A     -0.594042    35A     -0.581407    36A     -0.543317
      37A     -0.532928    38A     -0.522752    39A     -0.503566
      40A     -0.494579    41A     -0.416620    42A     -0.393263
      43A     -0.356259    44A     -0.347577    45A     -0.312133

  @DF-RHF Final Energy:  -551.29327160856303

   => Energetics <=

    Nuclear Repulsion Energy =            697.8812140026157067
    One-Electron Energy =               -2132.4191896335773890
    Two-Electron Energy =                 883.2447040223986505
    DFT Exchange-Correlation Energy =       0.0000000000000000
    Empirical Dispersion Energy =           0.0000000000000000
    PCM Polarization Energy =               0.0000000000000000
    EFP Energy =                            0.0000000000000000
    Total Energy =                       -551.2932716085630318
  Basis Set: (AUG-CC-PVTZ AUX)
    Blend: AUG-CC-PVTZ-RI
    Molecular point group: c1
  Basis Set: AUG-CC-PVTZ
    Blend: AUG-CC-PVTZ
  Basis Set: (AUG-CC-PVTZ AUX)
    Blend: AUG-CC-PVTZ-JKFIT
  Basis Set: (AUG-CC-PVTZ AUX)
    Blend: AUG-CC-PVTZ-JKFIT
	 Reference Energy          =    -551.2932716085630318 [Eh]
	 Singles Energy            =      -0.0000000000000002 [Eh]
	 Same-Spin Energy          =      -0.6039790678534287 [Eh]
	 Opposite-Spin Energy      =      -1.8282221243524166 [Eh]
	 Correlation Energy        =      -2.4322011922058455 [Eh]
	 Total Energy              =    -553.7254728007688982 [Eh]

	 ================> DF-SCS-MP2 Energies <==================
	-----------------------------------------------------------
	 SCS Same-Spin Scale       =       0.3333333333333333 [-]
	 SCS Opposite-Spin Scale   =       1.2000000000000000 [-]
	 SCS Same-Spin Energy      =      -0.2013263559511429 [Eh]
	 SCS Opposite-Spin Energy  =      -2.1938665492228999 [Eh]
	 SCS Correlation Energy    =      -2.3951929051740435 [Eh]
	 SCS Total Energy          =    -553.6884645137371308 [Eh]
	-----------------------------------------------------------

  -Total Gradient:
     Atom            X                  Y                   Z
    ------   -----------------  -----------------  -----------------
       1       -0.000718103330    -0.001461913938    -0.000010479205
       2       -0.000020336088    -0.000016047759     0.000055166550
       3       -0.000059996984     0.000027312075     0.000060745652
       4        0.000056685769    -0.000019339518    -0.000030984429
       5       -0.001016019337    -0.000708158262    -0.001042613569
       6       -0.000001823662    -0.000012174966    -0.000037419932
       7       -0.000047625738    -0.000057880448    -0.000078233669
       8        0.000087686228     0.000023885027     0.000050608122
       9        0.000586342268     0.001819707044    -0.000525788999
      10        0.001206429559     0.000354288321     0.001574672163
      11        0.000006766102     0.000003459259    -0.000028834246
      12       -0.000042147133     0.000035980104     0.000028375279
      13       -0.000016705102     0.000001654492     0.000009975824
      14       -0.000015847168     0.000001462476     0.000006223394
      15       -0.000010136796     0.000008125767    -0.000009392092
      16        0.000026694591    -0.000011957826    -0.000016295351
      17       -0.000011030664     0.000007532702    -0.000001857552
      18       -0.000001457177     0.000009225904    -0.000001423083
      19       -0.000008643030    -0.000010192401     0.000005213112
      20        0.000018593384     0.000014664809     0.000025177834
      21       -0.000024171592    -0.000010055019    -0.000023676738
      22        0.000004845894     0.000000422162    -0.000009159068

  **** Optimization is complete! (in 6 steps) ****
    Final optimized geometry and variables:
    Molecular point group: c1

    Geometry (in Angstrom), charge = 0, multiplicity = 1:

    C           -1.248306304215     0.745711925786    -0.550485932748
    C           -0.283622113179     0.098410291455     1.541289860826
    C           -2.329783001016     1.299836926082     0.110991014460
    C           -1.360477009269     0.655751571654     2.212152671794
    C            1.421495952723    -1.710652154314    -0.194856761132
    C            1.522920451191     0.165502148401    -1.640851383441
    C            2.478986451042    -2.254415618061    -0.906486750048
    C            2.574768676681    -0.456681863903    -2.294118413814
    C           -0.205734890118     0.142102494808     0.151719909557
    C            0.921337476590    -0.463007466336    -0.554817997621
    C           -2.387217240925     1.257877221776     1.497162292542
    N            3.060919727794    -1.650172317453    -1.945095401005
    O           -3.473905605391     1.821857314419     2.093954051768
    H           -1.221491990671     0.763177685917    -1.630043989559
    H            0.518509119200    -0.352965783898     2.106383395549
    H           -3.141117117429     1.758881199585    -0.432036555964
    H           -1.399164844842     0.626542669901     3.292367406508
    H            0.978339584861    -2.261022998810     0.621514514072
    H            1.187445165545     1.140617723532    -1.960934851516
    H            2.872572668287    -3.224401386990    -0.636163974454
    H            3.053529435042     0.027092920197    -3.134142075879
    H           -3.394235884406     1.722318244596     3.047400790215

*** Psi4 exiting successfully. Buy a developer a beer!
