                               Psi4 1.1 release

  ==> Input File <==

--------------------------------------------------------------------------

memory 5 Gb

molecule phepyrOH_neutral {
  symmetry C1
  0 1
  C      1.885   -1.036   -0.112
  C      2.878   -1.652   2.002
  C      0.807   -0.463   0.561
  C      1.800   -1.079   2.676
  C      3.862   -2.773   -1.356
  C      5.298   -2.250   0.501
  C      4.965   -3.329   -1.983
  C      6.337   -2.829   -0.209
  C      2.921   -1.631   0.608
  C      4.040   -2.225   -0.090
  C      0.764   -0.484   1.955
  N      6.202   -3.372   -1.440
  O      -0.288   0.076   2.612
  H      1.904   -1.012   -1.199
  H      3.678   -2.112   2.578
  H      0.003   -0.001   -0.006
  H      1.772   -1.098   3.762
  H      2.895   -2.772   -1.850
  H      5.475   -1.833   1.487
  H      4.879   -3.768   -2.972
  H      7.337   -2.875   0.208
  H      -1.124   -0.185   2.193
  units Angstrom
}

dih_string = "3 11 13 22 45"
set optking fixed_dihedral = $dih_string

optimize('MP2/aug-cc-PVTZ')
--------------------------------------------------------------------------

    Molecular point group: c1
  Charge       = 0
  Multiplicity = 1
  Basis Set: AUG-CC-PVTZ
    Blend: AUG-CC-PVTZ
  Basis Set: (AUG-CC-PVTZ AUX)
    Blend: AUG-CC-PVTZ-JKFIT
  @DF-RHF Final Energy:  -551.28343137965533
    Total Energy =                       -551.2834313796553261
  Basis Set: (AUG-CC-PVTZ AUX)
    Blend: AUG-CC-PVTZ-RI
    Molecular point group: c1
  Basis Set: AUG-CC-PVTZ
    Blend: AUG-CC-PVTZ
  Basis Set: (AUG-CC-PVTZ AUX)
    Blend: AUG-CC-PVTZ-JKFIT
  Basis Set: (AUG-CC-PVTZ AUX)
    Blend: AUG-CC-PVTZ-JKFIT
	 Reference Energy          =    -551.2834313796553261 [Eh]
	 Singles Energy            =      -0.0000000000000002 [Eh]
	 Same-Spin Energy          =      -0.6049909172833513 [Eh]
	 Opposite-Spin Energy      =      -1.8306283546455555 [Eh]
	 Correlation Energy        =      -2.4356192719289069 [Eh]
	 Total Energy              =    -553.7190506515842117 [Eh]
	 SCS Total Energy          =    -553.6818490443243945 [Eh]
  @DF-RHF Final Energy:  -551.28935739878489
    Total Energy =                       -551.2893573987848868
  @DF-RHF Final Energy:  -551.29073929925926
    Total Energy =                       -551.2907392992592577
  @DF-RHF Final Energy:  -551.29079355400222
    Total Energy =                       -551.2907935540022208
  @DF-RHF Final Energy:  -551.29090539409253
    Total Energy =                       -551.2909053940925332
  @DF-RHF Final Energy:  -551.29099963126362
    Total Energy =                       -551.2909996312636167
  @DF-RHF Final Energy:  -551.29101986232831
    Total Energy =                       -551.2910198623283122
  @DF-RHF Final Energy:  -551.29100808549208
    Total Energy =                       -551.2910080854920807
  Charge       = 0
  Multiplicity = 1
  Basis Set: AUG-CC-PVTZ
    Blend: AUG-CC-PVTZ
  Basis Set: (AUG-CC-PVTZ AUX)
    Blend: AUG-CC-PVTZ-JKFIT

    Orbital Energies (a.u.)
    -----------------------

    Doubly Occupied:

       1A    -20.595451     2A    -15.560594     3A    -11.309380
       4A    -11.271822     5A    -11.271690     6A    -11.265376
       7A    -11.252057     8A    -11.250541     9A    -11.248486
      10A    -11.243595    11A    -11.238959    12A    -11.236016
      13A    -11.235804    14A     -1.411000    15A     -1.258097
      16A     -1.175740    17A     -1.105834    18A     -1.039151
      19A     -1.030348    20A     -1.012999    21A     -0.880798
      22A     -0.872165    23A     -0.842354    24A     -0.812628
      25A     -0.747558    26A     -0.725362    27A     -0.683912
      28A     -0.662307    29A     -0.654336    30A     -0.636938
      31A     -0.631715    32A     -0.606414    33A     -0.599745
      34A     -0.593668    35A     -0.557301    36A     -0.546258
      37A     -0.533573    38A     -0.519255    39A     -0.508730
      40A     -0.488983    41A     -0.417396    42A     -0.398451
      43A     -0.355652    44A     -0.348265    45A     -0.314587

  @DF-RHF Final Energy:  -551.29101955087208

   => Energetics <=

    Nuclear Repulsion Energy =            697.6185685902904652
    One-Electron Energy =               -2131.9165922139050053
    Two-Electron Energy =                 883.0070040727423475
    DFT Exchange-Correlation Energy =       0.0000000000000000
    Empirical Dispersion Energy =           0.0000000000000000
    PCM Polarization Energy =               0.0000000000000000
    EFP Energy =                            0.0000000000000000
    Total Energy =                       -551.2910195508720790
  Basis Set: (AUG-CC-PVTZ AUX)
    Blend: AUG-CC-PVTZ-RI
    Molecular point group: c1
  Basis Set: AUG-CC-PVTZ
    Blend: AUG-CC-PVTZ
  Basis Set: (AUG-CC-PVTZ AUX)
    Blend: AUG-CC-PVTZ-JKFIT
  Basis Set: (AUG-CC-PVTZ AUX)
    Blend: AUG-CC-PVTZ-JKFIT
	 Reference Energy          =    -551.2910195508720790 [Eh]
	 Singles Energy            =      -0.0000000000000003 [Eh]
	 Same-Spin Energy          =      -0.6039003566261703 [Eh]
	 Opposite-Spin Energy      =      -1.8281631151419979 [Eh]
	 Correlation Energy        =      -2.4320634717681684 [Eh]
	 Total Energy              =    -553.7230830226402531 [Eh]

	 ================> DF-SCS-MP2 Energies <==================
	-----------------------------------------------------------
	 SCS Same-Spin Scale       =       0.3333333333333333 [-]
	 SCS Opposite-Spin Scale   =       1.2000000000000000 [-]
	 SCS Same-Spin Energy      =      -0.2013001188753901 [Eh]
	 SCS Opposite-Spin Energy  =      -2.1937957381703974 [Eh]
	 SCS Correlation Energy    =      -2.3950958570457881 [Eh]
	 SCS Total Energy          =    -553.6861154079178959 [Eh]
	-----------------------------------------------------------

  -Total Gradient:
     Atom            X                  Y                   Z
    ------   -----------------  -----------------  -----------------
       1        0.000001053020     0.000003777050     0.000000087727
       2       -0.000001553927     0.000001978921     0.000008234083
       3        0.001325971477     0.001995382057     0.000220112057
       4        0.000021456220     0.000009520672    -0.000006195549
       5        0.000006051205     0.000018368208    -0.000008728667
       6       -0.000006555814    -0.000018800624     0.000005818234
       7       -0.000019890679    -0.000076227342     0.000046713398
       8        0.000013491074     0.000092081282    -0.000046627648
       9        0.000012157506    -0.000005540433    -0.000012939883
      10       -0.000023323192     0.000004843324     0.000018168498
      11       -0.002154368436    -0.003676424535     0.000057548080
      12        0.000005777168    -0.000011110473     0.000000746320
      13        0.001156260365     0.004227341627    -0.001932806143
      14       -0.000000393917    -0.000005854592     0.000005099795
      15       -0.000001657147     0.000003005810    -0.000004987220
      16        0.000003516077    -0.000003301526    -0.000000446375
      17        0.000000581572     0.000003579473    -0.000005762046
      18        0.000005287683     0.000005222774    -0.000002615933
      19        0.000000651308    -0.000006951426     0.000000308758
      20        0.000007167208     0.000031602266    -0.000016735175
      21       -0.000005167122    -0.000031608924     0.000016248702
      22       -0.000346511666    -0.002560883581     0.001658758999

  **** Optimization is complete! (in 9 steps) ****
    Final optimized geometry and variables:
    Molecular point group: c1

    Geometry (in Angstrom), charge = 0, multiplicity = 1:

    C           -1.247076384010     0.756676469530    -0.562191686862
    C           -0.315638222752     0.061112299292     1.529584509067
    C           -2.318288922090     1.330300856519     0.102872807507
    C           -1.394002865788     0.613546091990     2.199615811872
    C            0.758642723378    -1.091180510263    -1.805319177215
    C            2.192846653020    -0.455651534246    -0.029818272770
    C            1.863534609589    -1.638906673695    -2.436937054803
    C            3.238482507186    -1.030773310206    -0.733824790616
    C           -0.226925379729     0.116108527091     0.139091240417
    C            0.908031233770    -0.476974520485    -0.565112160099
    C           -2.404394488537     1.240392852311     1.485887706340
    N            3.095817241913    -1.619412792050    -1.923654902944
    O           -3.415304032249     1.836419537849     2.193888924290
    H           -1.181276368535     0.847062471643    -1.636278129420
    H            0.451081977860    -0.450072266721     2.092562357123
    H           -3.083811357759     1.857477813316    -0.447546754276
    H           -1.472231050975     0.557549588309     3.274092403243
    H           -0.214981130045    -1.165749675024    -2.265791564162
    H            2.384170136858     0.027506003221     0.916414843109
    H            1.753618740494    -2.122218838672    -3.397764439171
    H            4.239781248050    -1.012860605846    -0.326511518158
    H           -4.251590032345     1.667270709203     1.750963445161

*** Psi4 exiting successfully. Buy a developer a beer!
