                               Psi4 1.1 release

  ==> Input File <==

--------------------------------------------------------------------------

memory 5 Gb

molecule phepyrOH_cation {
  symmetry C1
  1 1
  C      1.885   -1.036   -0.112
  C      2.878   -1.652   2.002
  C      0.807   -0.463   0.561
  C      1.800   -1.079   2.676
  C      3.997   -3.566   -0.460
  C      5.160   -1.458   -0.392
  C      5.085   -4.110   -1.129
  C      6.219   -2.055   -1.062
  C      2.921   -1.631   0.608
  C      4.040   -2.225   -0.090
  C      0.764   -0.484   1.955
  N      6.151   -3.348   -1.407
  O      -0.288   0.076   2.612
  H      1.904   -1.012   -1.199
  H      3.678   -2.112   2.578
  H      0.003   -0.001   -0.006
  H      1.772   -1.098   3.762
  H      3.135   -4.188   -0.238
  H      5.221   -0.409   -0.115
  H      5.138   -5.139   -1.455
  H      7.127   -1.537   -1.338
  H      6.940   -3.767   -1.898
  H      -0.175   -0.018   3.571
  units Angstrom
}

dih_string = "1 9 10 5 270"
set optking fixed_dihedral = $dih_string

optimize('MP2/aug-cc-PVTZ')
--------------------------------------------------------------------------

    Molecular point group: c1
  Charge       = 1
  Multiplicity = 1
  Basis Set: AUG-CC-PVTZ
    Blend: AUG-CC-PVTZ
  Basis Set: (AUG-CC-PVTZ AUX)
    Blend: AUG-CC-PVTZ-JKFIT
  @DF-RHF Final Energy:  -551.66895972821203
    Total Energy =                       -551.6689597282120303
  Basis Set: (AUG-CC-PVTZ AUX)
    Blend: AUG-CC-PVTZ-RI
    Molecular point group: c1
  Basis Set: AUG-CC-PVTZ
    Blend: AUG-CC-PVTZ
  Basis Set: (AUG-CC-PVTZ AUX)
    Blend: AUG-CC-PVTZ-JKFIT
  Basis Set: (AUG-CC-PVTZ AUX)
    Blend: AUG-CC-PVTZ-JKFIT
	 Reference Energy          =    -551.6689597282120303 [Eh]
	 Singles Energy            =      -0.0000000000000001 [Eh]
	 Same-Spin Energy          =      -0.5958820005042613 [Eh]
	 Opposite-Spin Energy      =      -1.8249182907670667 [Eh]
	 Correlation Energy        =      -2.4208002912713278 [Eh]
	 Total Energy              =    -554.0897600194833785 [Eh]
	 SCS Total Energy          =    -554.0574890106339581 [Eh]
  @DF-RHF Final Energy:  -551.67344133405209
    Total Energy =                       -551.6734413340520859
  @DF-RHF Final Energy:  -551.67396879555463
    Total Energy =                       -551.6739687955546287
  @DF-RHF Final Energy:  -551.67393079269743
    Total Energy =                       -551.6739307926974334
  Charge       = 1
  Multiplicity = 1
  Basis Set: AUG-CC-PVTZ
    Blend: AUG-CC-PVTZ
  Basis Set: (AUG-CC-PVTZ AUX)
    Blend: AUG-CC-PVTZ-JKFIT

    Orbital Energies (a.u.)
    -----------------------

    Doubly Occupied:

       1A    -20.692807     2A    -15.844795     3A    -11.489537
       4A    -11.489508     5A    -11.451728     6A    -11.419075
       7A    -11.419045     8A    -11.416266     9A    -11.367239
      10A    -11.366021    11A    -11.363873    12A    -11.346816
      13A    -11.340650    14A     -1.520085    15A     -1.514779
      16A     -1.317692    17A     -1.263426    18A     -1.247158
      19A     -1.151295    20A     -1.143452    21A     -1.070745
      22A     -1.058880    23A     -0.971763    24A     -0.969830
      25A     -0.945383    26A     -0.876210    27A     -0.859690
      28A     -0.850284    29A     -0.821673    30A     -0.806831
      31A     -0.790024    32A     -0.777510    33A     -0.749955
      34A     -0.728826    35A     -0.713482    36A     -0.711662
      37A     -0.698123    38A     -0.683105    39A     -0.647661
      40A     -0.614981    41A     -0.604146    42A     -0.577432
      43A     -0.544365    44A     -0.463034    45A     -0.434105

  @DF-RHF Final Energy:  -551.67392818426333

   => Energetics <=

    Nuclear Repulsion Energy =            712.1839773041342596
    One-Electron Energy =               -2147.4459126710248711
    Two-Electron Energy =                 883.5880071826272797
    DFT Exchange-Correlation Energy =       0.0000000000000000
    Empirical Dispersion Energy =           0.0000000000000000
    PCM Polarization Energy =               0.0000000000000000
    EFP Energy =                            0.0000000000000000
    Total Energy =                       -551.6739281842633318
  Basis Set: (AUG-CC-PVTZ AUX)
    Blend: AUG-CC-PVTZ-RI
    Molecular point group: c1
  Basis Set: AUG-CC-PVTZ
    Blend: AUG-CC-PVTZ
  Basis Set: (AUG-CC-PVTZ AUX)
    Blend: AUG-CC-PVTZ-JKFIT
  Basis Set: (AUG-CC-PVTZ AUX)
    Blend: AUG-CC-PVTZ-JKFIT
	 Reference Energy          =    -551.6739281842633318 [Eh]
	 Singles Energy            =      -0.0000000000000003 [Eh]
	 Same-Spin Energy          =      -0.5952661683879230 [Eh]
	 Opposite-Spin Energy      =      -1.8231920871569141 [Eh]
	 Correlation Energy        =      -2.4184582555448375 [Eh]
	 Total Energy              =    -554.0923864398081378 [Eh]

	 ================> DF-SCS-MP2 Energies <==================
	-----------------------------------------------------------
	 SCS Same-Spin Scale       =       0.3333333333333333 [-]
	 SCS Opposite-Spin Scale   =       1.2000000000000000 [-]
	 SCS Same-Spin Energy      =      -0.1984220561293077 [Eh]
	 SCS Opposite-Spin Energy  =      -2.1878305045882969 [Eh]
	 SCS Correlation Energy    =      -2.3862525607176051 [Eh]
	 SCS Total Energy          =    -554.0601807449809257 [Eh]
	-----------------------------------------------------------

  -Total Gradient:
     Atom            X                  Y                   Z
    ------   -----------------  -----------------  -----------------
       1        0.000033524763    -0.000058706575     0.000005719809
       2        0.000008581587     0.000001150800     0.000037938921
       3       -0.000030008542     0.000009624141    -0.000001080007
       4        0.000018966047    -0.000018744736    -0.000030332588
       5        0.000013687091    -0.000000271440    -0.000052144736
       6        0.000027813194    -0.000016968503    -0.000010721569
       7       -0.000011096055    -0.000012573845     0.000016237658
       8        0.000002197413     0.000015811378     0.000004516621
       9        0.000003342124     0.000048766744    -0.000076887170
      10       -0.000033251393    -0.000007688155     0.000082325854
      11       -0.000025718696     0.000041665304     0.000030661240
      12       -0.000001910128     0.000005658233    -0.000002139763
      13        0.000029478197    -0.000024826567     0.000001547941
      14       -0.000007712249     0.000004608915     0.000003609521
      15        0.000001031223    -0.000001311862    -0.000012239161
      16        0.000007401118    -0.000002827036    -0.000010458295
      17       -0.000012096128     0.000005463609     0.000006256198
      18       -0.000011186678    -0.000001222782     0.000005482821
      19       -0.000005225615     0.000009601120     0.000002872820
      20        0.000000290053     0.000000551096    -0.000001719876
      21        0.000000082040    -0.000000096524     0.000000479174
      22        0.000004681606    -0.000002562833    -0.000005480657
      23       -0.000012870980     0.000004899520     0.000005555254

  **** Optimization is complete! (in 5 steps) ****
    Final optimized geometry and variables:
    Molecular point group: c1

    Geometry (in Angstrom), charge = 1, multiplicity = 1:

    C           -1.279326666780     0.728085238910    -0.552167989625
    C           -0.287654653915     0.104764460349     1.550729369136
    C           -2.347232443398     1.295526656484     0.117865706369
    C           -1.358027760724     0.673624976254     2.221901429609
    C            0.862314305515    -1.811950901757    -0.937119190925
    C            2.018288763928     0.280751295595    -0.868486640739
    C            1.930324475140    -2.362568366672    -1.609313729333
    C            3.071633096853    -0.296302229655    -1.541649258401
    C           -0.242842138495     0.129266897515     0.160748190766
    C            0.887639302717    -0.471836053794    -0.551708983191
    C           -2.390888942936     1.270690443218     1.507680205921
    N            2.991736076293    -1.590311413720    -1.886725112922
    O           -3.463663611067     1.843736737898     2.092283951769
    H           -1.253858611556     0.752008149600    -1.631677683376
    H            0.509941716163    -0.356747922408     2.114156480693
    H           -3.156806016851     1.762546755914    -0.420738448799
    H           -1.387503407546     0.651769443334     3.301791242141
    H            0.005286872958    -2.426407074743    -0.711584039574
    H            2.075135013680     1.320638751158    -0.588627200975
    H            1.975089846748    -3.388415847769    -1.935006962568
    H            3.972180559506     0.227073130714    -1.816489585275
    H            3.771884437946    -2.005004865453    -2.382126552471
    H           -3.398931195277     1.773960381222     3.050581005009

*** Psi4 exiting successfully. Buy a developer a beer!
