                               Psi4 1.1 release

  ==> Input File <==

--------------------------------------------------------------------------

memory 5 Gb

molecule phepyrOH_neutral {
  symmetry C1
  0 1
  C      1.885   -1.036   -0.112
  C      2.878   -1.652   2.002
  C      0.807   -0.463   0.561
  C      1.800   -1.079   2.676
  C      5.074   -2.819   0.625
  C      4.084   -2.207   -1.480
  C      6.122   -3.375   -0.090
  C      5.177   -2.790   -2.101
  C      2.921   -1.631   0.608
  C      4.040   -2.225   -0.090
  C      0.764   -0.484   1.955
  N      6.200   -3.376   -1.440
  O      -0.288   0.076   2.612
  H      1.904   -1.012   -1.199
  H      3.678   -2.112   2.578
  H      0.003   -0.001   -0.006
  H      1.772   -1.098   3.762
  H      5.074   -2.854   1.710
  H      3.296   -1.752   -2.071
  H      6.952   -3.852   0.421
  H      5.259   -2.801   -3.183
  H      -0.175   -0.018   3.571
  units Angstrom
}

dih_string = "1 9 10 5 180.001"
set optking fixed_dihedral = $dih_string

optimize('MP2/aug-cc-PVTZ')
--------------------------------------------------------------------------

    Molecular point group: c1
  Charge       = 0
  Multiplicity = 1
  Basis Set: AUG-CC-PVTZ
    Blend: AUG-CC-PVTZ
  Basis Set: (AUG-CC-PVTZ AUX)
    Blend: AUG-CC-PVTZ-JKFIT
  @DF-RHF Final Energy:  -551.27930523793418
    Total Energy =                       -551.2793052379341816
  Basis Set: (AUG-CC-PVTZ AUX)
    Blend: AUG-CC-PVTZ-RI
    Molecular point group: c1
  Basis Set: AUG-CC-PVTZ
    Blend: AUG-CC-PVTZ
  Basis Set: (AUG-CC-PVTZ AUX)
    Blend: AUG-CC-PVTZ-JKFIT
  Basis Set: (AUG-CC-PVTZ AUX)
    Blend: AUG-CC-PVTZ-JKFIT
	 Reference Energy          =    -551.2793052379341816 [Eh]
	 Singles Energy            =      -0.0000000000000001 [Eh]
	 Same-Spin Energy          =      -0.6058736756897731 [Eh]
	 Opposite-Spin Energy      =      -1.8332275891383616 [Eh]
	 Correlation Energy        =      -2.4391012648281345 [Eh]
	 Total Energy              =    -553.7184065027622637 [Eh]
	 SCS Total Energy          =    -553.6811362367967604 [Eh]
  @DF-RHF Final Energy:  -551.28730524875471
    Total Energy =                       -551.2873052487547056
  @DF-RHF Final Energy:  -551.28999796034554
    Total Energy =                       -551.2899979603455449
  @DF-RHF Final Energy:  -551.28999126242604
    Total Energy =                       -551.2899912624260423
  @DF-RHF Final Energy:  -551.28996939528736
    Total Energy =                       -551.2899693952873577
    Molecular point group: c1
  Charge       = 0
  Multiplicity = 1
  Basis Set: AUG-CC-PVTZ
    Blend: AUG-CC-PVTZ
  Basis Set: (AUG-CC-PVTZ AUX)
    Blend: AUG-CC-PVTZ-JKFIT

    Orbital Energies (a.u.)
    -----------------------

    Doubly Occupied:

       1A    -20.604523     2A    -15.558116     3A    -11.315705
       4A    -11.270357     5A    -11.270260     6A    -11.268537
       7A    -11.254819     8A    -11.252564     9A    -11.249287
      10A    -11.244750    11A    -11.238270    12A    -11.234570
      13A    -11.234278    14A     -1.421733    15A     -1.256605
      16A     -1.176064    17A     -1.105329    18A     -1.040989
      19A     -1.029156    20A     -1.014328    21A     -0.884278
      22A     -0.875435    23A     -0.840286    24A     -0.814805
      25A     -0.753440    26A     -0.726964    27A     -0.687526
      28A     -0.667175    29A     -0.650638    30A     -0.634758
      31A     -0.613237    32A     -0.609311    33A     -0.605900
      34A     -0.588536    35A     -0.579402    36A     -0.550252
      37A     -0.536750    38A     -0.526818    39A     -0.503513
      40A     -0.492522    41A     -0.416284    42A     -0.403125
      43A     -0.358925    44A     -0.345889    45A     -0.305256

  @DF-RHF Final Energy:  -551.28988822487167

   => Energetics <=

    Nuclear Repulsion Energy =            697.0194335868662847
    One-Electron Energy =               -2130.5961152269519516
    Two-Electron Energy =                 882.2867934152138787
    DFT Exchange-Correlation Energy =       0.0000000000000000
    Empirical Dispersion Energy =           0.0000000000000000
    PCM Polarization Energy =               0.0000000000000000
    EFP Energy =                            0.0000000000000000
    Total Energy =                       -551.2898882248716745
  Basis Set: (AUG-CC-PVTZ AUX)
    Blend: AUG-CC-PVTZ-RI
    Molecular point group: c1

    Geometry (in Angstrom), charge = 0, multiplicity = 1:

       Center              X                  Y                   Z               Mass
    ------------   -----------------  -----------------  -----------------  -----------------
           C         -1.275374166809     0.734295794408    -0.540993721254    12.000000000000
           C         -0.310839000144     0.083557356138     1.536905964839    12.000000000000
           C         -2.339054758954     1.316071268637     0.123789954808    12.000000000000
           C         -1.371128286198     0.662669432508     2.213599032615    12.000000000000
           C          1.978259460270    -1.076866373754     0.100103987730    12.000000000000
           C          0.979243563152    -0.512404215500    -1.961467157372    12.000000000000
           C          3.034053693555    -1.619085526162    -0.614001801667    12.000000000000
           C          2.075648841864    -1.076929007914    -2.592477085647    12.000000000000
           C         -0.237268492730     0.097515941930     0.143997567853    12.000000000000
           C          0.896792905516    -0.503823206890    -0.569477797739    12.000000000000
           C         -2.394030761193     1.282554332846     1.509633502248    12.000000000000
           N          3.103879962373    -1.631323655362    -1.946722383246    14.003074004780
           O         -3.463482722784     1.870852945624     2.111216135886    15.994914619560
           H         -1.267784319565     0.784225688624    -1.617351315336     1.007825032070
           H          0.464560610041    -0.384895248636     2.120387404741     1.007825032070
           H         -3.134370509429     1.801791096895    -0.421108484151     1.007825032070
           H         -1.399238779821     0.631913476670     3.294511410456     1.007825032070
           H          2.018096630831    -1.112734773269     1.176475807038     1.007825032070
           H          0.200621102799    -0.086336821691    -2.572754592550     1.007825032070
           H          3.867791336595    -2.062984330491    -0.086528392246     1.007825032070
           H          2.129791377992    -1.081447677798    -3.672578404648     1.007825032070
           H         -3.376960904943     1.777125179141     3.064910264976     1.007825032070

  Basis Set: AUG-CC-PVTZ
    Blend: AUG-CC-PVTZ
  Basis Set: (AUG-CC-PVTZ AUX)
    Blend: AUG-CC-PVTZ-JKFIT
  Basis Set: (AUG-CC-PVTZ AUX)
    Blend: AUG-CC-PVTZ-JKFIT
	 Reference Energy          =    -551.2898882248716745 [Eh]
	 Singles Energy            =      -0.0000000000000001 [Eh]
	 Same-Spin Energy          =      -0.6042921441975072 [Eh]
	 Opposite-Spin Energy      =      -1.8298294424336754 [Eh]
	 Correlation Energy        =      -2.4341215866311825 [Eh]
	 Total Energy              =    -553.7240098115028104 [Eh]

	 ================> DF-SCS-MP2 Energies <==================
	-----------------------------------------------------------
	 SCS Same-Spin Scale       =       0.3333333333333333 [-]
	 SCS Opposite-Spin Scale   =       1.2000000000000000 [-]
	 SCS Same-Spin Energy      =      -0.2014307147325024 [Eh]
	 SCS Opposite-Spin Energy  =      -2.1957953309204106 [Eh]
	 SCS Correlation Energy    =      -2.3972260456529129 [Eh]
	 SCS Total Energy          =    -553.6871142705246029 [Eh]
	-----------------------------------------------------------

  -Total Gradient:
     Atom            X                  Y                   Z
    ------   -----------------  -----------------  -----------------
       1        0.000657321871     0.001307195243     0.000034528213
       2        0.000257417752     0.000552291655     0.000087704007
       3       -0.000191811639    -0.000164607188     0.000001769694
       4        0.000183892287    -0.000162054495     0.000104696830
       5        0.000905435124     0.001119394919     0.000164723298
       6        0.000227736629     0.000570609540     0.000032217511
       7       -0.000104382265    -0.000279175350    -0.000054197128
       8       -0.000079537368     0.000038534281    -0.000178547759
       9       -0.000799288239    -0.001805191479    -0.000033679336
      10       -0.001311821415    -0.001817743849    -0.000242511486
      11       -0.000038251290     0.000157823091    -0.000036571773
      12        0.000223244610    -0.000038787270     0.000114481139
      13       -0.000076551671     0.000114972304    -0.000130501160
      14       -0.000036639601     0.000099026381    -0.000133791040
      15        0.000166249346     0.000148503882     0.000098761998
      16       -0.000198644130     0.000031535706    -0.000159003425
      17       -0.000038901795    -0.000065232695     0.000073571085
      18        0.000073060992     0.000018217342     0.000091794724
      19       -0.000057203910     0.000212806053    -0.000064350219
      20        0.000217486379    -0.000053245068     0.000130343367
      21       -0.000019612940     0.000041022991    -0.000026284346
      22        0.000040801267    -0.000025895988     0.000124845804

*** Psi4 exiting successfully. Buy a developer a beer!
