                               Psi4 1.1 release

  ==> Input File <==

--------------------------------------------------------------------------

memory 5 Gb

molecule phepyrFOH_neutral {
  symmetry C1
  0 1
  C      1.885   -1.036   -0.112
  C      0.807   -0.463   0.561
  C      3.825   -3.269   -0.988
  C      5.328   -1.753   0.119
  C      1.800   -1.079   2.676
  C      4.927   -3.802   -1.637
  C      6.363   -2.354   -0.579
  C      2.921   -1.631   0.608
  C      4.038   -2.225   -0.095
  C      0.764   -0.484   1.955
  C      2.878   -1.652   2.002
  N      6.195   -3.370   -1.455
  O      -0.289   0.076   2.612
  F      3.866   -2.220   2.709
  H      1.904   -1.012   -1.199
  H      0.002   -0.002   -0.006
  H      2.833   -3.663   -1.183
  H      5.532   -0.940   0.809
  H      1.772   -1.099   3.762
  H      4.814   -4.616   -2.345
  H      7.387   -2.023   -0.446
  H      -0.653   0.813   2.097
  units Angstrom
}

dih_string = "2 10 13 22 330"
set optking fixed_dihedral = $dih_string

optimize('MP2/aug-cc-PVTZ')
--------------------------------------------------------------------------

    Molecular point group: c1
  Charge       = 0
  Multiplicity = 1
  Basis Set: AUG-CC-PVTZ
    Blend: AUG-CC-PVTZ
  Basis Set: (AUG-CC-PVTZ AUX)
    Blend: AUG-CC-PVTZ-JKFIT
  @DF-RHF Final Energy:  -650.17253492276927
    Total Energy =                       -650.1725349227692732
  Basis Set: (AUG-CC-PVTZ AUX)
    Blend: AUG-CC-PVTZ-RI
    Molecular point group: c1
  Basis Set: AUG-CC-PVTZ
    Blend: AUG-CC-PVTZ
  Basis Set: (AUG-CC-PVTZ AUX)
    Blend: AUG-CC-PVTZ-JKFIT
  Basis Set: (AUG-CC-PVTZ AUX)
    Blend: AUG-CC-PVTZ-JKFIT
	 Reference Energy          =    -650.1725349227692732 [Eh]
	 Singles Energy            =      -0.0000000000000001 [Eh]
	 Same-Spin Energy          =      -0.6774247749639589 [Eh]
	 Opposite-Spin Energy      =      -2.0191321000470648 [Eh]
	 Correlation Energy        =      -2.6965568750110238 [Eh]
	 Total Energy              =    -652.8690917977802428 [Eh]
	 SCS Total Energy          =    -652.8213017011470356 [Eh]
  @DF-RHF Final Energy:  -650.17879995996441
    Total Energy =                       -650.1787999599644081
    Molecular point group: c1
  Charge       = 0
  Multiplicity = 1
  Basis Set: AUG-CC-PVTZ
    Blend: AUG-CC-PVTZ
  Basis Set: (AUG-CC-PVTZ AUX)
    Blend: AUG-CC-PVTZ-JKFIT

    Orbital Energies (a.u.)
    -----------------------

    Doubly Occupied:

       1A    -26.320639     2A    -20.606261     3A    -15.563302
       4A    -11.343760     5A    -11.323854     6A    -11.272927
       7A    -11.271996     8A    -11.267771     9A    -11.264155
      10A    -11.254751    11A    -11.247305    12A    -11.245184
      13A    -11.239154    14A    -11.237662    15A     -1.640651
      16A     -1.423533    17A     -1.259293    18A     -1.185139
      19A     -1.112100    20A     -1.044049    21A     -1.035191
      22A     -1.023311    23A     -0.890358    24A     -0.877748
      25A     -0.855893    26A     -0.830732    27A     -0.779053
      28A     -0.736460    29A     -0.722218    30A     -0.707332
      31A     -0.693008    32A     -0.666649    33A     -0.665581
      34A     -0.654661    35A     -0.633140    36A     -0.617620
      37A     -0.606793    38A     -0.597893    39A     -0.575114
      40A     -0.549481    41A     -0.541675    42A     -0.529940
      43A     -0.519639    44A     -0.498202    45A     -0.418537
      46A     -0.391977    47A     -0.360582    48A     -0.348514
      49A     -0.329051

  @DF-RHF Final Energy:  -650.18061827215274

   => Energetics <=

    Nuclear Repulsion Energy =            814.3124716928261932
    One-Electron Energy =               -2503.4264997434497673
    Two-Electron Energy =                1038.9334097784708320
    DFT Exchange-Correlation Energy =       0.0000000000000000
    Empirical Dispersion Energy =           0.0000000000000000
    PCM Polarization Energy =               0.0000000000000000
    EFP Energy =                            0.0000000000000000
    Total Energy =                       -650.1806182721527421
  Basis Set: (AUG-CC-PVTZ AUX)
    Blend: AUG-CC-PVTZ-RI
    Molecular point group: c1

    Geometry (in Angstrom), charge = 0, multiplicity = 1:

       Center              X                  Y                   Z               Mass
    ------------   -----------------  -----------------  -----------------  -----------------
           C         -1.342990725576     0.743011269894    -0.775518646606    12.000000000000
           C         -2.418995265566     1.313604665151    -0.114371432361    12.000000000000
           C          0.654770938853    -1.478296985297    -1.689684144299    12.000000000000
           C          2.148662167286    -0.013245100079    -0.562115835227    12.000000000000
           C         -1.415458867970     0.742994629161     1.992893723669    12.000000000000
           C          1.754036550579    -2.019255389562    -2.338316339993    12.000000000000
           C          3.184411899307    -0.617032926224    -1.256655955621    12.000000000000
           C         -0.288758204816     0.161304287329    -0.078297807661    12.000000000000
           C          0.846412117373    -0.447707915136    -0.778074675563    12.000000000000
           C         -2.449532627712     1.319480177741     1.274533557072    12.000000000000
           C         -0.360858431363     0.178007843881     1.307558599073    12.000000000000
           N          3.008246375513    -1.607384372724    -2.136377662884    14.003074004780
           O         -3.490612647867     1.844145569274     1.983757277065    15.994914619560
           F          0.631962118486    -0.378726741087     2.017450744813    18.998403224000
           H         -1.318159118891     0.744286199574    -1.854763549936     1.007825032070
           H         -3.231554740715     1.751921440026    -0.675039207367     1.007825032070
           H         -0.336665905321    -1.855132278196    -1.891136646448     1.007825032070
           H          2.352555482352     0.784363849943     0.135353967756     1.007825032070
           H         -1.433963405176     0.733388062438     3.070544850188     1.007825032070
           H          1.627518260921    -2.822583845102    -3.050886911687     1.007825032070
           H          4.204896707501    -0.293863556951    -1.105253101785     1.007825032070
           H         -3.888104608060     2.557302616862     1.475733595636     1.007825032070

  Basis Set: AUG-CC-PVTZ
    Blend: AUG-CC-PVTZ
  Basis Set: (AUG-CC-PVTZ AUX)
    Blend: AUG-CC-PVTZ-JKFIT
  Basis Set: (AUG-CC-PVTZ AUX)
    Blend: AUG-CC-PVTZ-JKFIT
	 Reference Energy          =    -650.1806182721527421 [Eh]
	 Singles Energy            =      -0.0000000000000008 [Eh]
	 Same-Spin Energy          =      -0.6764217089427507 [Eh]
	 Opposite-Spin Energy      =      -2.0164192566862114 [Eh]
	 Correlation Energy        =      -2.6928409656289629 [Eh]
	 Total Energy              =    -652.8734592377817307 [Eh]

	 ================> DF-SCS-MP2 Energies <==================
	-----------------------------------------------------------
	 SCS Same-Spin Scale       =       0.3333333333333333 [-]
	 SCS Opposite-Spin Scale   =       1.2000000000000000 [-]
	 SCS Same-Spin Energy      =      -0.2254739029809169 [Eh]
	 SCS Opposite-Spin Energy  =      -2.4197031080234535 [Eh]
	 SCS Correlation Energy    =      -2.6451770110043711 [Eh]
	 SCS Total Energy          =    -652.8257952831571629 [Eh]
	-----------------------------------------------------------

  -Total Gradient:
     Atom            X                  Y                   Z
    ------   -----------------  -----------------  -----------------
       1        0.002119424722     0.000611441185    -0.001516716233
       2       -0.000660382561    -0.000895172057     0.000163676118
       3       -0.000473726018    -0.000899438055     0.001722115470
       4       -0.000719215371     0.001337405144    -0.000396283117
       5       -0.000581713061     0.001392996586    -0.001666220449
       6       -0.001277518957    -0.000077049350     0.000550939568
       7       -0.000386262398     0.000844062048     0.000821195470
       8       -0.002900329221     0.001320434460     0.001704867207
       9        0.001656318215    -0.000794710710    -0.001735564144
      10        0.001197584322     0.000109122680     0.002398761206
      11        0.003000820699    -0.003125207718     0.001647730007
      12        0.000789247247    -0.000368033048    -0.000515960005
      13       -0.002388847181    -0.002108318309    -0.002281709224
      14       -0.001409616120     0.000999833352    -0.001161361227
      15       -0.000625095360     0.000045006725     0.000100123703
      16       -0.000107150731     0.000099062392    -0.000186003435
      17        0.000151801199     0.000089014008    -0.000566841557
      18        0.000273508886     0.000035944367    -0.000143359058
      19       -0.000013637746    -0.000205759778     0.000225866711
      20        0.000407567566    -0.000101133033    -0.000223047631
      21        0.000273940612    -0.000278336892    -0.000208934189
      22        0.001673281252     0.001968836008     0.001266724811

*** Psi4 exiting successfully. Buy a developer a beer!
