                               Psi4 1.1 release

  ==> Input File <==

--------------------------------------------------------------------------

memory 5 Gb

molecule phepyrFOH_zwitterion {
  symmetry C1
  0 1
  C      1.885   -1.036   -0.112
  C      0.807   -0.463   0.561
  C      5.157   -1.455   -0.399
  C      3.995   -3.564   -0.468
  C      1.800   -1.079   2.676
  C      6.213   -2.050   -1.075
  C      5.080   -4.106   -1.142
  C      2.921   -1.631   0.608
  C      4.038   -2.224   -0.095
  C      0.764   -0.484   1.955
  C      2.878   -1.652   2.002
  N      6.145   -3.343   -1.422
  O      -0.227   0.043   2.574
  F      3.866   -2.220   2.709
  H      1.904   -1.013   -1.200
  H      0.011   -0.007   -0.025
  H      5.218   -0.408   -0.120
  H      3.134   -4.187   -0.244
  H      1.791   -1.109   3.764
  H      7.121   -1.531   -1.351
  H      5.134   -5.135   -1.469
  H      6.932   -3.760   -1.919
  units Angstrom
}

dih_string = "1 8 9 3 90"
set optking fixed_dihedral = $dih_string

optimize('MP2/aug-cc-PVTZ')
--------------------------------------------------------------------------

    Molecular point group: c1
  Charge       = 0
  Multiplicity = 1
  Basis Set: AUG-CC-PVTZ
    Blend: AUG-CC-PVTZ
  Basis Set: (AUG-CC-PVTZ AUX)
    Blend: AUG-CC-PVTZ-JKFIT
  @DF-RHF Final Energy:  -650.08116138555397
    Total Energy =                       -650.0811613855539690
  Basis Set: (AUG-CC-PVTZ AUX)
    Blend: AUG-CC-PVTZ-RI
    Molecular point group: c1
  Basis Set: AUG-CC-PVTZ
    Blend: AUG-CC-PVTZ
  Basis Set: (AUG-CC-PVTZ AUX)
    Blend: AUG-CC-PVTZ-JKFIT
  Basis Set: (AUG-CC-PVTZ AUX)
    Blend: AUG-CC-PVTZ-JKFIT
	 Reference Energy          =    -650.0811613855539690 [Eh]
	 Singles Energy            =      -0.0000000000000001 [Eh]
	 Same-Spin Energy          =      -0.6772127620758053 [Eh]
	 Opposite-Spin Energy      =      -2.0215226854994954 [Eh]
	 Correlation Energy        =      -2.6987354475753005 [Eh]
	 Total Energy              =    -652.7798968331292144 [Eh]
	 SCS Total Energy          =    -652.7327261955119866 [Eh]
  @DF-RHF Final Energy:  -650.08835390896479
    Total Energy =                       -650.0883539089647911
  @DF-RHF Final Energy:  -650.09284007649546
    Total Energy =                       -650.0928400764953494
  @DF-RHF Final Energy:  -650.09420319825335
    Total Energy =                       -650.0942031982533535
  @DF-RHF Final Energy:  -650.09406294334144
    Total Energy =                       -650.0940629433414415
  @DF-RHF Final Energy:  -650.09382298415346
    Total Energy =                       -650.0938229841535758
  @DF-RHF Final Energy:  -650.09454746203835
    Total Energy =                       -650.0945474620384630
  @DF-RHF Final Energy:  -650.09249376218349
    Total Energy =                       -650.0924937621834943
  @DF-RHF Final Energy:  -650.09321200872773
    Total Energy =                       -650.0932120087277326
  @DF-RHF Final Energy:  -650.09386135479826
    Total Energy =                       -650.0938613547982641
  @DF-RHF Final Energy:  -650.09482583574800
    Total Energy =                       -650.0948258357479972
  @DF-RHF Final Energy:  -650.09537857026714
    Total Energy =                       -650.0953785702670302
  @DF-RHF Final Energy:  -650.09525874670931
    Total Energy =                       -650.0952587467093053
  @DF-RHF Final Energy:  -650.09713506782566
    Total Energy =                       -650.0971350678255476
  @DF-RHF Final Energy:  -650.09483693037328
    Total Energy =                       -650.0948369303732761
  @DF-RHF Final Energy:  -650.09573713038981
    Total Energy =                       -650.0957371303898071
  @DF-RHF Final Energy:  -650.09575383507649
    Total Energy =                       -650.0957538350764935
  @DF-RHF Final Energy:  -650.09642649356249
    Total Energy =                       -650.0964264935623760
  @DF-RHF Final Energy:  -650.09697034145904
    Total Energy =                       -650.0969703414589276
  @DF-RHF Final Energy:  -650.09753173082549
    Total Energy =                       -650.0975317308254944
  @DF-RHF Final Energy:  -650.09803823133950
    Total Energy =                       -650.0980382313396149
  @DF-RHF Final Energy:  -650.09825048076266
    Total Energy =                       -650.0982504807625446
  @DF-RHF Final Energy:  -650.09782664435625
    Total Energy =                       -650.0978266443562461
  @DF-RHF Final Energy:  -650.09612907729888
    Total Energy =                       -650.0961290772988832
    Molecular point group: c1
  Charge       = 0
  Multiplicity = 1
  Basis Set: AUG-CC-PVTZ
    Blend: AUG-CC-PVTZ
  Basis Set: (AUG-CC-PVTZ AUX)
    Blend: AUG-CC-PVTZ-JKFIT

    Orbital Energies (a.u.)
    -----------------------

    Doubly Occupied:

       1A    -26.291131     2A    -20.432666     3A    -15.722289
       4A    -11.373891     5A    -11.370734     6A    -11.332622
       7A    -11.299744     8A    -11.299313     9A    -11.295744
      10A    -11.243482    11A    -11.222809    12A    -11.203001
      13A    -11.170037    14A    -11.169040    15A     -1.611355
      16A     -1.397100    17A     -1.281187    18A     -1.185236
      19A     -1.126453    20A     -1.112843    21A     -1.003359
      22A     -0.986070    23A     -0.947437    24A     -0.916088
      25A     -0.854640    26A     -0.815057    27A     -0.799070
      28A     -0.752435    29A     -0.741315    30A     -0.702554
      31A     -0.692878    32A     -0.690532    33A     -0.674663
      34A     -0.668805    35A     -0.657945    36A     -0.622519
      37A     -0.593980    38A     -0.586107    39A     -0.565779
      40A     -0.549400    41A     -0.503165    42A     -0.500918
      43A     -0.483388    44A     -0.454667    45A     -0.429999
      46A     -0.410279    47A     -0.339323    48A     -0.317223
      49A     -0.233850

  @DF-RHF Final Energy:  -650.09676803048410

   => Energetics <=

    Nuclear Repulsion Energy =            819.7881432106157717
    One-Electron Energy =               -2514.5015783552698849
    Two-Electron Energy =                1044.6166671141700135
    DFT Exchange-Correlation Energy =       0.0000000000000000
    Empirical Dispersion Energy =           0.0000000000000000
    PCM Polarization Energy =               0.0000000000000000
    EFP Energy =                            0.0000000000000000
    Total Energy =                       -650.0967680304840997
  Basis Set: (AUG-CC-PVTZ AUX)
    Blend: AUG-CC-PVTZ-RI
    Molecular point group: c1

    Geometry (in Angstrom), charge = 0, multiplicity = 1:

       Center              X                  Y                   Z               Mass
    ------------   -----------------  -----------------  -----------------  -----------------
           C         -1.305666266113     1.158666870212    -0.719267305811    12.000000000000
           C         -2.440601635777     1.474707197333    -0.019329093856    12.000000000000
           C          1.983893637772     0.440561020785    -1.357573031124    12.000000000000
           C          0.821040509571    -1.587571247385    -0.884020403310    12.000000000000
           C         -1.507497387279     0.479727155234     1.943021066289    12.000000000000
           C          3.028815328931    -0.289540663021    -1.876960368304    12.000000000000
           C          1.873743690952    -2.298603049721    -1.403520590576    12.000000000000
           C         -0.213720767336     0.523337096386    -0.119626092893    12.000000000000
           C          0.814645815605    -0.174098204582    -0.867596232433    12.000000000000
           C         -2.608730766742     1.178707645857     1.375893493845    12.000000000000
           C         -0.426767202963     0.141259436866     1.201252236669    12.000000000000
           N          2.949912862134    -1.640320184972    -1.887427449584    14.003074004780
           O         -3.610420391222     1.484257905020     2.023595560512    15.994914619560
           F          0.559800712109    -0.573735852762     1.782637731989    18.998403224000
           H         -1.246896404344     1.391903731822    -1.769255725809     1.007825032070
           H         -3.273283309744     1.953391696068    -0.499795366560     1.007825032070
           H          2.065730079140     1.505940229021    -1.308236841774     1.007825032070
           H         -0.028203594464    -2.110134153318    -0.487168235446     1.007825032070
           H         -1.553248341560     0.236387808483     2.983204741808     1.007825032070
           H          3.945801983009     0.144504645049    -2.234191443270     1.007825032070
           H          1.902875783128    -3.373098923939    -1.454051322626     1.007825032070
           H          3.719273983778    -2.166802373921    -2.247603329477     1.007825032070

  Basis Set: AUG-CC-PVTZ
    Blend: AUG-CC-PVTZ
  Basis Set: (AUG-CC-PVTZ AUX)
    Blend: AUG-CC-PVTZ-JKFIT
  Basis Set: (AUG-CC-PVTZ AUX)
    Blend: AUG-CC-PVTZ-JKFIT
	 Reference Energy          =    -650.0967680304840997 [Eh]
	 Singles Energy            =      -0.0000000000000004 [Eh]
	 Same-Spin Energy          =      -0.6761913977824036 [Eh]
	 Opposite-Spin Energy      =      -2.0209436824856470 [Eh]
	 Correlation Energy        =      -2.6971350802680512 [Eh]
	 Total Energy              =    -652.7939031107521259 [Eh]

	 ================> DF-SCS-MP2 Energies <==================
	-----------------------------------------------------------
	 SCS Same-Spin Scale       =       0.3333333333333333 [-]
	 SCS Opposite-Spin Scale   =       1.2000000000000000 [-]
	 SCS Same-Spin Energy      =      -0.2253971325941345 [Eh]
	 SCS Opposite-Spin Energy  =      -2.4251324189827765 [Eh]
	 SCS Correlation Energy    =      -2.6505295515769114 [Eh]
	 SCS Total Energy          =    -652.7472975820610372 [Eh]
	-----------------------------------------------------------

  -Total Gradient:
     Atom            X                  Y                   Z
    ------   -----------------  -----------------  -----------------
       1        0.005052138444    -0.020947807984     0.004446933570
       2       -0.002507172691    -0.001184850864     0.007066281947
       3        0.006354708957     0.003663560539     0.014406853839
       4       -0.006219177535    -0.001428621787    -0.000845308834
       5       -0.007856135371     0.004600607895    -0.004082630674
       6        0.007325796663    -0.000335966758    -0.003764088890
       7        0.002049102773    -0.003793467520    -0.001754873571
       8       -0.007083826445     0.021087429252     0.015169061060
       9       -0.006719991502    -0.002860200142    -0.020080319955
      10       -0.007599943911     0.000891285743     0.012206617061
      11        0.007517401497     0.003610584389    -0.006028729265
      12        0.007891875009    -0.006128703439    -0.003284004438
      13        0.017803503356    -0.006081407198    -0.010555637593
      14       -0.011312632152     0.008018817118    -0.006996259526
      15        0.000554147120    -0.000985054470     0.003839841648
      16        0.002116679688    -0.001681962499     0.004359372186
      17       -0.001430961608    -0.006462277484     0.000124833649
      18        0.002262268986     0.002817711210    -0.001097953408
      19       -0.001675526555     0.002513664070    -0.006629120752
      20       -0.000521484480    -0.000453616586     0.000253009816
      21       -0.000001150442     0.000768234570     0.000292647211
      22       -0.005999619813     0.004372041947     0.002953474937

*** Psi4 exiting successfully. Buy a developer a beer!
