                              Psi4 1.0.0 Driver

  ==> Input File <==

--------------------------------------------------------------------------

memory 1000 mb

molecule butane {
  symmetry C1
  0 1
  H      1.604   0.760   -8.260
  H      1.745   2.388   -8.880
  H      2.043   1.024   -9.930
  C      2.142   1.395   -8.932
  H      4.169   2.051   -9.210
  H      3.731   1.788   -7.539
  C      3.631   1.416   -8.537
  H      4.242   -0.432   -7.629
  H      3.575   -0.616   -9.233
  C      4.203   -0.012   -8.612
  H      6.019   -0.959   -9.259
  H      6.250   0.637   -8.587
  H      5.584   0.454   -10.191
  C      5.622   0.033   -9.207
  units Angstrom
}

dih_string = "4 7 10 14 140"
set optking fixed_dihedral = $dih_string

optimize('MP2/6-31G(d)')
--------------------------------------------------------------------------

    Molecular point group: c1
  Charge       = 0
  Multiplicity = 1
  Basis Set: 6-31G(D)
  Basis Set:
  @DF-RHF Final Energy:  -157.28945483938890
    Total Energy =                       -157.2894548393889238
  Basis Set:
    Molecular point group: c1
  Basis Set: 6-31G(D)
  Basis Set:
  Basis Set:
	 Reference Energy          =    -157.2894548393888954 [Eh]
	 Singles Energy            =      -0.0000000000000000 [Eh]
	 Same-Spin Energy          =      -0.1244065889850068 [Eh]
	 Opposite-Spin Energy      =      -0.4203584571104063 [Eh]
	 Correlation Energy        =      -0.5447650460954131 [Eh]
	 Total Energy              =    -157.8342198854843161 [Eh]
	 SCS Total Energy          =    -157.8353538509163911 [Eh]
  Basis Set: 6-31G(D)
  Basis Set:
  @DF-RHF Final Energy:  -157.29242145567534
    Total Energy =                       -157.2924214556753668
  Basis Set:
  Basis Set: 6-31G(D)
  Basis Set:
  @DF-RHF Final Energy:  -157.29328510352346
    Total Energy =                       -157.2932851035234592
  @DF-RHF Final Energy:  -157.29360890142050
    Total Energy =                       -157.2936089014206686
  @DF-RHF Final Energy:  -157.29367571310010
    Total Energy =                       -157.2936757130999013
  @DF-RHF Final Energy:  -157.29369608734743
    Total Energy =                       -157.2936960873473993
	 Singles Energy            =      -0.0000000000000000 [Eh]
	 Same-Spin Energy          =      -0.1243280061598964 [Eh]
	 Opposite-Spin Energy      =      -0.4223499643745166 [Eh]
	 Correlation Energy        =      -0.5466779705344130 [Eh]
	 Total Energy              =    -157.8403740578818315 [Eh]
	 SCS Total Energy          =    -157.8419587133168136 [Eh]
  Charge       = 0
  Multiplicity = 1
  Basis Set: 6-31G(D)
  Basis Set:

    Orbital Energies (a.u.)
    -----------------------

    Doubly Occupied:

       1A    -11.215558     2A    -11.214987     3A    -11.210447
       4A    -11.210441     5A     -1.068445     6A     -0.979516
       7A     -0.859310     8A     -0.786594     9A     -0.633422
      10A     -0.587036    11A     -0.581747    12A     -0.557892
      13A     -0.510872    14A     -0.501870    15A     -0.464915
      16A     -0.457063    17A     -0.454660

  @DF-RHF Final Energy:  -157.29368893817590

   => Energetics <=

    Nuclear Repulsion Energy =            130.8301098406119820
    One-Electron Energy =                -469.6580435056282568
    Two-Electron Energy =                 181.5342447268403703
    DFT Exchange-Correlation Energy =       0.0000000000000000
    Empirical Dispersion Energy =           0.0000000000000000
    PCM Polarization Energy =               0.0000000000000000
    EFP Energy =                            0.0000000000000000
    Total Energy =                       -157.2936889381759329
  Basis Set:
    Molecular point group: c1
  Basis Set: 6-31G(D)
  Basis Set:
  Basis Set:
	 Reference Energy          =    -157.2936889381759045 [Eh]
	 Singles Energy            =      -0.0000000000000000 [Eh]
	 Same-Spin Energy          =      -0.1243292214837411 [Eh]
	 Opposite-Spin Energy      =      -0.4223553193496355 [Eh]
	 Correlation Energy        =      -0.5466845408333766 [Eh]
	 Total Energy              =    -157.8403734790092869 [Eh]

	 ================> DF-SCS-MP2 Energies <==================
	-----------------------------------------------------------
	 SCS Same-Spin Scale       =       0.3333333333333333 [-]
	 SCS Opposite-Spin Scale   =       1.2000000000000000 [-]
	 SCS Same-Spin Energy      =      -0.0414430738279137 [Eh]
	 SCS Opposite-Spin Energy  =      -0.5068263832195625 [Eh]
	 SCS Correlation Energy    =      -0.5482694570474762 [Eh]
	 SCS Total Energy          =    -157.8419583952233722 [Eh]
	-----------------------------------------------------------

  -Total Gradient:
     Atom            X                  Y                   Z
    ------   -----------------  -----------------  -----------------
       1        0.000002185572    -0.000002417375     0.000009937449
       2       -0.000003422658     0.000005538228    -0.000005299867
       3       -0.000018794452    -0.000008415069    -0.000008648753
       4        0.000752115462     0.000483160097    -0.002850940771
       5        0.000005897341    -0.000002504416     0.000007314394
       6        0.000009141648    -0.000002092434     0.000012663500
       7       -0.001439022386    -0.000812213872     0.002873297708
       8       -0.000007206313     0.000001589609     0.000013778371
       9       -0.000004614484     0.000002254568     0.000007951768
      10        0.001821940745     0.000662135124     0.002689156704
      11        0.000002889190    -0.000005666043    -0.000006041679
      12       -0.000000599974     0.000001798816     0.000010473796
      13        0.000017328988     0.000008724752    -0.000010485701
      14       -0.001137838680    -0.000331891986    -0.002743156920

  **** Optimization is complete! (in 7 steps) ****
    Final optimized geometry and variables:
    Molecular point group: c1

    Geometry (in Angstrom), charge = 0, multiplicity = 1:

    H           -2.352447397959     0.036704784792     0.566424663716
    H           -2.207990125962     1.702087018108    -0.009867716372
    H           -1.913228210717     0.352326367599    -1.115586398891
    C           -1.777416179395     0.699641967518    -0.087382878726
    H            0.233651818973     1.365679506603    -0.396329016238
    H           -0.160177257266     1.110788128592     1.289699078563
    C           -0.298826597707     0.692454197721     0.286763262169
    H            0.330940780435    -1.177629364598     1.194361139887
    H           -0.290672888091    -1.343358118790    -0.433182094394
    C            0.332683061213    -0.705706589151     0.205729667870
    H            2.179620510900    -1.690984083764    -0.402794202583
    H            2.407655320723    -0.058318854782     0.236644850975
    H            1.741398146515    -0.285063888927    -1.383967317339
    C            1.746184201659    -0.687416843310    -0.366930530573

*** Psi4 exiting successfully. Buy a developer a beer!
