                               Psi4 1.1 release

  ==> Input File <==

--------------------------------------------------------------------------

memory 5 Gb

molecule phepyrFOH_cation {
  symmetry C1
  1 1
  C      1.885   -1.036   -0.112
  C      0.807   -0.463   0.561
  C      4.245   -1.940   -1.441
  C      4.906   -3.082   0.574
  C      1.800   -1.079   2.676
  C      5.323   -2.524   -2.090
  C      5.968   -3.637   -0.126
  C      2.921   -1.631   0.608
  C      4.038   -2.225   -0.095
  C      0.764   -0.484   1.955
  C      2.878   -1.652   2.002
  N      6.144   -3.346   -1.422
  O      -0.289   0.076   2.612
  F      3.866   -2.220   2.709
  H      1.904   -1.012   -1.199
  H      0.002   -0.002   -0.006
  H      3.583   -1.274   -1.988
  H      4.769   -3.322   1.624
  H      1.772   -1.099   3.762
  H      5.561   -2.359   -3.132
  H      6.691   -4.312   0.312
  H      6.930   -3.765   -1.917
  H      -0.175   -0.018   3.571
  units Angstrom
}

dih_string = "1 8 9 3 15"
set optking fixed_dihedral = $dih_string

optimize('MP2/aug-cc-PVTZ')
--------------------------------------------------------------------------

    Molecular point group: c1
  Charge       = 1
  Multiplicity = 1
  Basis Set: AUG-CC-PVTZ
    Blend: AUG-CC-PVTZ
  Basis Set: (AUG-CC-PVTZ AUX)
    Blend: AUG-CC-PVTZ-JKFIT
  @DF-RHF Final Energy:  -650.55329066920740
    Total Energy =                       -650.5532906692073993
  Basis Set: (AUG-CC-PVTZ AUX)
    Blend: AUG-CC-PVTZ-RI
    Molecular point group: c1
  Basis Set: AUG-CC-PVTZ
    Blend: AUG-CC-PVTZ
  Basis Set: (AUG-CC-PVTZ AUX)
    Blend: AUG-CC-PVTZ-JKFIT
  Basis Set: (AUG-CC-PVTZ AUX)
    Blend: AUG-CC-PVTZ-JKFIT
	 Reference Energy          =    -650.5532906692073993 [Eh]
	 Singles Energy            =      -0.0000000000000001 [Eh]
	 Same-Spin Energy          =      -0.6709027692066855 [Eh]
	 Opposite-Spin Energy      =      -2.0164240498425987 [Eh]
	 Correlation Energy        =      -2.6873268190492841 [Eh]
	 Total Energy              =    -653.2406174882567029 [Eh]
	 SCS Total Energy          =    -653.1966337854207723 [Eh]
  @DF-RHF Final Energy:  -650.56158327282560
    Total Energy =                       -650.5615832728256009
  @DF-RHF Final Energy:  -650.56595353855232
    Total Energy =                       -650.5659535385523213
  @DF-RHF Final Energy:  -650.56783148200225
    Total Energy =                       -650.5678314820022479
  @DF-RHF Final Energy:  -650.56863108507866
    Total Energy =                       -650.5686310850785503
  @DF-RHF Final Energy:  -650.56899281578831
    Total Energy =                       -650.5689928157883060
  @DF-RHF Final Energy:  -650.56912180207132
    Total Energy =                       -650.5691218020713222
  Charge       = 1
  Multiplicity = 1
  Basis Set: AUG-CC-PVTZ
    Blend: AUG-CC-PVTZ
  Basis Set: (AUG-CC-PVTZ AUX)
    Blend: AUG-CC-PVTZ-JKFIT

    Orbital Energies (a.u.)
    -----------------------

    Doubly Occupied:

       1A    -26.449424     2A    -20.721175     3A    -15.826036
       4A    -11.478948     5A    -11.477585     6A    -11.476090
       7A    -11.455039     8A    -11.452027     9A    -11.409718
      10A    -11.404807    11A    -11.389490    12A    -11.384778
      13A    -11.363691    14A    -11.354936    15A     -1.770124
      16A     -1.545083    17A     -1.505309    18A     -1.323078
      19A     -1.276090    20A     -1.235256    21A     -1.171820
      22A     -1.163298    23A     -1.065793    24A     -1.061528
      25A     -0.999393    26A     -0.976171    27A     -0.958537
      28A     -0.904810    29A     -0.873930    30A     -0.866331
      31A     -0.853425    32A     -0.835643    33A     -0.821847
      34A     -0.806015    35A     -0.786572    36A     -0.771909
      37A     -0.770449    38A     -0.755049    39A     -0.728232
      40A     -0.723158    41A     -0.709359    42A     -0.691462
      43A     -0.667580    44A     -0.647653    45A     -0.643592
      46A     -0.574096    47A     -0.536455    48A     -0.481523
      49A     -0.446791

  @DF-RHF Final Energy:  -650.56915387738513

   => Energetics <=

    Nuclear Repulsion Energy =            830.4030151656951375
    One-Electron Energy =               -2520.7621244653728354
    Two-Electron Energy =                1039.7899554222924507
    DFT Exchange-Correlation Energy =       0.0000000000000000
    Empirical Dispersion Energy =           0.0000000000000000
    PCM Polarization Energy =               0.0000000000000000
    EFP Energy =                            0.0000000000000000
    Total Energy =                       -650.5691538773851335
  Basis Set: (AUG-CC-PVTZ AUX)
    Blend: AUG-CC-PVTZ-RI
    Molecular point group: c1
  Basis Set: AUG-CC-PVTZ
    Blend: AUG-CC-PVTZ
  Basis Set: (AUG-CC-PVTZ AUX)
    Blend: AUG-CC-PVTZ-JKFIT
  Basis Set: (AUG-CC-PVTZ AUX)
    Blend: AUG-CC-PVTZ-JKFIT
	 Reference Energy          =    -650.5691538773851335 [Eh]
	 Singles Energy            =      -0.0000000000000003 [Eh]
	 Same-Spin Energy          =      -0.6687536234495404 [Eh]
	 Opposite-Spin Energy      =      -2.0125633992527900 [Eh]
	 Correlation Energy        =      -2.6813170227023311 [Eh]
	 Total Energy              =    -653.2504709000875209 [Eh]

	 ================> DF-SCS-MP2 Energies <==================
	-----------------------------------------------------------
	 SCS Same-Spin Scale       =       0.3333333333333333 [-]
	 SCS Opposite-Spin Scale   =       1.2000000000000000 [-]
	 SCS Same-Spin Energy      =      -0.2229178744831801 [Eh]
	 SCS Opposite-Spin Energy  =      -2.4150760791033479 [Eh]
	 SCS Correlation Energy    =      -2.6379939535865282 [Eh]
	 SCS Total Energy          =    -653.2071478309716213 [Eh]
	-----------------------------------------------------------

  -Total Gradient:
     Atom            X                  Y                   Z
    ------   -----------------  -----------------  -----------------
       1        0.001055265786     0.001885133309     0.000064039074
       2        0.000047954074    -0.000030265779    -0.000004473990
       3       -0.001221626897    -0.001677600165    -0.000536459145
       4       -0.000062991129     0.000079145747     0.000010983191
       5       -0.000051019322     0.000039344703     0.000037680236
       6       -0.000027972784     0.000012167084    -0.000002272012
       7        0.000027981533     0.000009654094    -0.000084751058
       8       -0.002106342012    -0.003673159065    -0.000374208961
       9        0.002311024032     0.003433857701     0.000927453474
      10        0.000002125468    -0.000008517153     0.000004367796
      11       -0.000050018736    -0.000000592538    -0.000129708993
      12        0.000020469466    -0.000039884249     0.000058476935
      13       -0.000012414140     0.000005817960    -0.000008005869
      14        0.000080262099    -0.000031366652     0.000050870016
      15       -0.000001196188     0.000010188535    -0.000028878898
      16       -0.000019230740     0.000013062021     0.000004602902
      17       -0.000015873794     0.000006263600    -0.000029927634
      18        0.000000387088    -0.000026518420     0.000008016508
      19        0.000021772904    -0.000009919812     0.000009260080
      20       -0.000003578378     0.000001823468    -0.000003473766
      21       -0.000009730993    -0.000005202622     0.000019623172
      22        0.000012553602     0.000006525622    -0.000004605838
      23        0.000002199070     0.000000042610     0.000011392784

  **** Optimization is complete! (in 8 steps) ****
    Final optimized geometry and variables:
    Molecular point group: c1

    Geometry (in Angstrom), charge = 1, multiplicity = 1:

    C           -1.329494381053     0.713458172613    -0.784526605175
    C           -2.416288207932     1.301120205941    -0.185428395997
    C            1.114749595090    -0.184356872807    -2.064405937422
    C            1.736470746792    -1.355233217307    -0.083051658501
    C           -1.484585956003     0.796153419699     1.972433877808
    C            2.173554235447    -0.757194233669    -2.719622299241
    C            2.784839375792    -1.914388315161    -0.769705145720
    C           -0.285642329503     0.128873267754    -0.046572551239
    C            0.856937749847    -0.457333567030    -0.711028671950
    C           -2.502049921172     1.348084541240     1.205774240061
    C           -0.414866044049     0.206027613637     1.342515099940
    N            2.980509366262    -1.604293048183    -2.060350734096
    O           -3.585428729462     1.937000356497     1.729595322036
    F            0.559330666631    -0.274540124760     2.134198447877
    H           -1.315394103966     0.666645413732    -1.861136645852
    H           -3.214685234818     1.724290908262    -0.773094112446
    H            0.508088597857     0.510169086691    -2.619047208589
    H            1.601442905076    -1.641926895722     0.942995615467
    H           -1.501498467020     0.823048792581     3.051006172181
    H            2.407895641798    -0.561590337037    -3.752623931850
    H            3.474719713949    -2.612021794136    -0.324897280156
    H            3.760201333128    -2.021225208373    -2.552046233302
    H           -3.555270218992     1.918127668117     2.693068927608

*** Psi4 exiting successfully. Buy a developer a beer!
