                               Psi4 1.1 release

  ==> Input File <==

--------------------------------------------------------------------------

memory 5 Gb

molecule phepyrFOH_cation {
  symmetry C1
  1 1
  C      1.885   -1.036   -0.112
  C      0.807   -0.463   0.561
  C      4.830   -1.443   -0.930
  C      4.321   -3.578   0.063
  C      1.800   -1.079   2.676
  C      5.894   -2.040   -1.592
  C      5.398   -4.120   -0.624
  C      2.921   -1.631   0.608
  C      4.038   -2.225   -0.095
  C      0.764   -0.484   1.955
  C      2.878   -1.652   2.002
  N      6.144   -3.345   -1.422
  O      -0.289   0.076   2.612
  F      3.866   -2.220   2.709
  H      1.904   -1.012   -1.199
  H      0.002   -0.002   -0.006
  H      4.632   -0.385   -1.072
  H      3.719   -4.212   0.708
  H      1.772   -1.099   3.762
  H      6.561   -1.511   -2.259
  H      5.691   -5.159   -0.561
  H      6.930   -3.764   -1.918
  H      -0.743   -0.592   3.151
  units Angstrom
}

dih_string = "2 10 13 23 120"
set optking fixed_dihedral = $dih_string

optimize('MP2/aug-cc-PVTZ')
--------------------------------------------------------------------------

    Molecular point group: c1
  Charge       = 1
  Multiplicity = 1
  Basis Set: AUG-CC-PVTZ
    Blend: AUG-CC-PVTZ
  Basis Set: (AUG-CC-PVTZ AUX)
    Blend: AUG-CC-PVTZ-JKFIT
  @DF-RHF Final Energy:  -650.55554041370851
    Total Energy =                       -650.5555404137085134
  Basis Set: (AUG-CC-PVTZ AUX)
    Blend: AUG-CC-PVTZ-RI
    Molecular point group: c1
  Basis Set: AUG-CC-PVTZ
    Blend: AUG-CC-PVTZ
  Basis Set: (AUG-CC-PVTZ AUX)
    Blend: AUG-CC-PVTZ-JKFIT
  Basis Set: (AUG-CC-PVTZ AUX)
    Blend: AUG-CC-PVTZ-JKFIT
	 Reference Energy          =    -650.5555404137085134 [Eh]
	 Singles Energy            =      -0.0000000000000002 [Eh]
	 Same-Spin Energy          =      -0.6687704167494586 [Eh]
	 Opposite-Spin Energy      =      -2.0134183948725726 [Eh]
	 Correlation Energy        =      -2.6821888116220309 [Eh]
	 Total Energy              =    -653.2377292253305541 [Eh]
	 SCS Total Energy          =    -653.1945659598054590 [Eh]
  @DF-RHF Final Energy:  -650.56049240874449
    Total Energy =                       -650.5604924087444942
  @DF-RHF Final Energy:  -650.56165459634167
    Total Energy =                       -650.5616545963416684
  @DF-RHF Final Energy:  -650.56202754284436
    Total Energy =                       -650.5620275428443620
  @DF-RHF Final Energy:  -650.56233527136806
    Total Energy =                       -650.5623352713680561
  @DF-RHF Final Energy:  -650.56271171456979
    Total Energy =                       -650.5627117145697866
  @DF-RHF Final Energy:  -650.56310128914959
    Total Energy =                       -650.5631012891494720
  @DF-RHF Final Energy:  -650.56345344529495
    Total Energy =                       -650.5634534452949538
  @DF-RHF Final Energy:  -650.56373220757473
    Total Energy =                       -650.5637322075747306
  @DF-RHF Final Energy:  -650.56393066127475
    Total Energy =                       -650.5639306612747532
  @DF-RHF Final Energy:  -650.56404950892806
    Total Energy =                       -650.5640495089280648
  @DF-RHF Final Energy:  -650.56407802279659
    Total Energy =                       -650.5640780227965934
  @DF-RHF Final Energy:  -650.56402316639412
    Total Energy =                       -650.5640231663942359
  @DF-RHF Final Energy:  -650.56408521432218
    Total Energy =                       -650.5640852143221764
  @DF-RHF Final Energy:  -650.56408551659808
    Total Energy =                       -650.5640855165981975
  @DF-RHF Final Energy:  -650.56408213769294
    Total Energy =                       -650.5640821376930489
  @DF-RHF Final Energy:  -650.56406905063500
    Total Energy =                       -650.5640690506349983
  Charge       = 1
  Multiplicity = 1
  Basis Set: AUG-CC-PVTZ
    Blend: AUG-CC-PVTZ
  Basis Set: (AUG-CC-PVTZ AUX)
    Blend: AUG-CC-PVTZ-JKFIT

    Orbital Energies (a.u.)
    -----------------------

    Doubly Occupied:

       1A    -26.445466     2A    -20.700610     3A    -15.833310
       4A    -11.483179     5A    -11.481377     6A    -11.472313
       7A    -11.456108     8A    -11.440336     9A    -11.414791
      10A    -11.411762    11A    -11.387649    12A    -11.386088
      13A    -11.361603    14A    -11.355407    15A     -1.765559
      16A     -1.522649    17A     -1.511153    18A     -1.325365
      19A     -1.276461    20A     -1.240864    21A     -1.170444
      22A     -1.160055    23A     -1.067698    24A     -1.064550
      25A     -0.992280    26A     -0.973866    27A     -0.962373
      28A     -0.896570    29A     -0.872159    30A     -0.865894
      31A     -0.849646    32A     -0.833856    33A     -0.819594
      34A     -0.810391    35A     -0.793601    36A     -0.775620
      37A     -0.764377    38A     -0.752642    39A     -0.744873
      40A     -0.719074    41A     -0.706947    42A     -0.674985
      43A     -0.660445    44A     -0.648043    45A     -0.615520
      46A     -0.579191    47A     -0.540282    48A     -0.477535
      49A     -0.456110

  @DF-RHF Final Energy:  -650.56409027449149

   => Energetics <=

    Nuclear Repulsion Energy =            830.8072693276271821
    One-Electron Energy =               -2521.7013826673801304
    Two-Electron Energy =                1040.3300230652614573
    DFT Exchange-Correlation Energy =       0.0000000000000000
    Empirical Dispersion Energy =           0.0000000000000000
    PCM Polarization Energy =               0.0000000000000000
    EFP Energy =                            0.0000000000000000
    Total Energy =                       -650.5640902744914911
  Basis Set: (AUG-CC-PVTZ AUX)
    Blend: AUG-CC-PVTZ-RI
    Molecular point group: c1
  Basis Set: AUG-CC-PVTZ
    Blend: AUG-CC-PVTZ
  Basis Set: (AUG-CC-PVTZ AUX)
    Blend: AUG-CC-PVTZ-JKFIT
  Basis Set: (AUG-CC-PVTZ AUX)
    Blend: AUG-CC-PVTZ-JKFIT
	 Reference Energy          =    -650.5640902744914911 [Eh]
	 Singles Energy            =      -0.0000000000000004 [Eh]
	 Same-Spin Energy          =      -0.6685795980526132 [Eh]
	 Opposite-Spin Energy      =      -2.0120431634627778 [Eh]
	 Correlation Energy        =      -2.6806227615153913 [Eh]
	 Total Energy              =    -653.2447130360068286 [Eh]

	 ================> DF-SCS-MP2 Energies <==================
	-----------------------------------------------------------
	 SCS Same-Spin Scale       =       0.3333333333333333 [-]
	 SCS Opposite-Spin Scale   =       1.2000000000000000 [-]
	 SCS Same-Spin Energy      =      -0.2228598660175377 [Eh]
	 SCS Opposite-Spin Energy  =      -2.4144517961553333 [Eh]
	 SCS Correlation Energy    =      -2.6373116621728716 [Eh]
	 SCS Total Energy          =    -653.2014019366644106 [Eh]
	-----------------------------------------------------------

  -Total Gradient:
     Atom            X                  Y                   Z
    ------   -----------------  -----------------  -----------------
       1       -0.000007086950     0.000010957429    -0.000022506540
       2       -0.001856035056    -0.002333118431    -0.000666174931
       3        0.000000643469     0.000025491757    -0.000028660288
       4       -0.000034713307    -0.000035052419     0.000020591383
       5       -0.000021567258     0.000019309214     0.000038582167
       6        0.000033205643    -0.000027951404     0.000004619489
       7        0.000004138660    -0.000014112150    -0.000045129269
       8       -0.000008537822    -0.000026635047    -0.000039821410
       9        0.000052878236     0.000021756831     0.000057792270
      10        0.002165045757     0.003488730070     0.000125058348
      11       -0.000000156905     0.000064670392     0.000002121619
      12        0.000005409193     0.000008427637    -0.000001729594
      13        0.001778471959    -0.001161497575     0.004075620572
      14       -0.000014859485    -0.000018577809    -0.000010784101
      15        0.000009482343    -0.000021372759     0.000040416855
      16        0.000025494095    -0.000009828569     0.000033839703
      17       -0.000001245674    -0.000067500478     0.000017582471
      18        0.000024262455     0.000049043678    -0.000047201007
      19       -0.000003782160     0.000010650177    -0.000036504768
      20       -0.000005610510    -0.000023764617     0.000016954828
      21        0.000001444605     0.000032483005    -0.000012211251
      22       -0.000006825389     0.000006801691     0.000003123685
      23       -0.002140055913     0.000001089374    -0.003525580233

  **** Optimization is complete! (in 18 steps) ****
    Final optimized geometry and variables:
    Molecular point group: c1

    Geometry (in Angstrom), charge = 1, multiplicity = 1:

    C           -1.162109686229     1.038393004184    -0.707002629982
    C           -2.236044259958     1.605791555250    -0.055564068454
    C            1.460412781048     0.279692646894    -1.805942544524
    C            1.363008246180    -1.664895518221    -0.419954515798
    C           -1.551645685661     0.538848123255     1.992578707019
    C            2.510128579354    -0.278525571918    -2.491658735521
    C            2.413361676363    -2.195517849558    -1.127584750246
    C           -0.266957884534     0.190623059428    -0.042477888545
    C            0.851810182215    -0.401701464574    -0.744696086460
    C           -2.427559074141     1.366441825216     1.301666994970
    C           -0.505876293984    -0.038545293024     1.311875264788
    N            2.955558678545    -1.493728086292    -2.135323244268
    O           -3.460413678319     1.983686493974     1.931307733437
    F            0.348546084194    -0.810837626385     2.005052127148
    H           -1.043392129576     1.207447046151    -1.766506374529
    H           -2.936024518696     2.236674428122    -0.578626379878
    H            1.135120113903     1.268842432987    -2.082935542497
    H            0.932122586382    -2.249022112031     0.373857230321
    H           -1.666669696695     0.361510395741     3.049788264945
    H            3.018421772685     0.209347050444    -3.306400790416
    H            2.836596182326    -3.165105857583    -0.925197518434
    H            3.732956121474    -1.895150302901    -2.644178012827
    H           -4.066380101010     1.336105917132     2.306137682373

*** Psi4 exiting successfully. Buy a developer a beer!
