                               Psi4 1.1 release

  ==> Input File <==

--------------------------------------------------------------------------

memory 5 Gb

molecule phepyrFOH_neutral {
  symmetry C1
  0 1
  C      1.885   -1.036   -0.112
  C      0.807   -0.463   0.561
  C      5.157   -1.459   -0.400
  C      3.996   -3.564   -0.466
  C      1.800   -1.079   2.676
  C      6.200   -2.075   -1.073
  C      5.091   -4.085   -1.136
  C      2.921   -1.631   0.608
  C      4.038   -2.225   -0.095
  C      0.764   -0.484   1.955
  C      2.878   -1.652   2.002
  N      6.196   -3.373   -1.450
  O      -0.289   0.076   2.612
  F      3.866   -2.220   2.709
  H      1.904   -1.012   -1.199
  H      0.002   -0.002   -0.006
  H      5.227   -0.411   -0.126
  H      3.139   -4.192   -0.245
  H      1.772   -1.099   3.762
  H      7.097   -1.521   -1.333
  H      5.107   -5.124   -1.448
  H      -0.175   -0.018   3.571
  units Angstrom
}

dih_string = "1 8 9 3 90"
set optking fixed_dihedral = $dih_string

optimize('MP2/aug-cc-PVTZ')
--------------------------------------------------------------------------

    Molecular point group: c1
  Charge       = 0
  Multiplicity = 1
  Basis Set: AUG-CC-PVTZ
    Blend: AUG-CC-PVTZ
  Basis Set: (AUG-CC-PVTZ AUX)
    Blend: AUG-CC-PVTZ-JKFIT
  @DF-RHF Final Energy:  -650.17219530446982
    Total Energy =                       -650.1721953044698239
  Basis Set: (AUG-CC-PVTZ AUX)
    Blend: AUG-CC-PVTZ-RI
    Molecular point group: c1
  Basis Set: AUG-CC-PVTZ
    Blend: AUG-CC-PVTZ
  Basis Set: (AUG-CC-PVTZ AUX)
    Blend: AUG-CC-PVTZ-JKFIT
  Basis Set: (AUG-CC-PVTZ AUX)
    Blend: AUG-CC-PVTZ-JKFIT
	 Reference Energy          =    -650.1721953044698239 [Eh]
	 Singles Energy            =      -0.0000000000000003 [Eh]
	 Same-Spin Energy          =      -0.6771080316493490 [Eh]
	 Opposite-Spin Energy      =      -2.0193772959062231 [Eh]
	 Correlation Energy        =      -2.6964853275555725 [Eh]
	 Total Energy              =    -652.8686806320254163 [Eh]
	 SCS Total Energy          =    -652.8211507367736885 [Eh]
    Molecular point group: c1
  Charge       = 0
  Multiplicity = 1
  Basis Set: AUG-CC-PVTZ
    Blend: AUG-CC-PVTZ
  Basis Set: (AUG-CC-PVTZ AUX)
    Blend: AUG-CC-PVTZ-JKFIT

    Orbital Energies (a.u.)
    -----------------------

    Doubly Occupied:

       1A    -26.323872     2A    -20.608358     3A    -15.565276
       4A    -11.345616     5A    -11.324513     6A    -11.273889
       7A    -11.273843     8A    -11.266825     9A    -11.262070
      10A    -11.251762    11A    -11.250686    12A    -11.241154
      13A    -11.239185    14A    -11.239144    15A     -1.643542
      16A     -1.426148    17A     -1.257642    18A     -1.183074
      19A     -1.111212    20A     -1.041522    21A     -1.035677
      22A     -1.022757    23A     -0.891301    24A     -0.873942
      25A     -0.859717    26A     -0.826338    27A     -0.773442
      28A     -0.747274    29A     -0.726206    30A     -0.709661
      31A     -0.694924    32A     -0.668672    33A     -0.660338
      34A     -0.643862    35A     -0.636638    36A     -0.614929
      37A     -0.609421    38A     -0.598791    39A     -0.579662
      40A     -0.544911    41A     -0.536712    42A     -0.530383
      43A     -0.526632    44A     -0.494105    45A     -0.420082
      46A     -0.380606    47A     -0.360932    48A     -0.348565
      49A     -0.333635

  @DF-RHF Final Energy:  -650.17861455933564

   => Energetics <=

    Nuclear Repulsion Energy =            813.4886592298702226
    One-Electron Energy =               -2501.7756571647983037
    Two-Electron Energy =                1038.1083833755924388
    DFT Exchange-Correlation Energy =       0.0000000000000000
    Empirical Dispersion Energy =           0.0000000000000000
    PCM Polarization Energy =               0.0000000000000000
    EFP Energy =                            0.0000000000000000
    Total Energy =                       -650.1786145593355286
  Basis Set: (AUG-CC-PVTZ AUX)
    Blend: AUG-CC-PVTZ-RI
    Molecular point group: c1

    Geometry (in Angstrom), charge = 0, multiplicity = 1:

       Center              X                  Y                   Z               Mass
    ------------   -----------------  -----------------  -----------------  -----------------
           C         -1.337109995403     0.762994991952    -0.774314178225    12.000000000000
           C         -2.411437069431     1.334092824966    -0.104648341471    12.000000000000
           C          1.964942185790     0.313221644913    -1.097227772147    12.000000000000
           C          0.813506292737    -1.774144702145    -1.162909519621    12.000000000000
           C         -1.412201088357     0.715376628546     1.992938448725    12.000000000000
           C          3.009668875086    -0.301968390671    -1.769668199741    12.000000000000
           C          1.908803076670    -2.297250171931    -1.832555747922    12.000000000000
           C         -0.292528810914     0.164131000707    -0.076378101324    12.000000000000
           C          0.839842280895    -0.438152099768    -0.786167963963    12.000000000000
           C         -2.448078073140     1.309925786980     1.281050337436    12.000000000000
           C         -0.349180351652     0.150951896351     1.308955603113    12.000000000000
           N          3.004605332713    -1.589765027655    -2.142838942109    14.003074004780
           O         -3.509507929536     1.875309402338     1.915265492571    15.994914619560
           F          0.641186828518    -0.418017989169     2.008077729702    18.998403224000
           H         -1.316748350852     0.786030683363    -1.855011077413     1.007825032070
           H         -3.217118116581     1.795151640597    -0.659122302010     1.007825032070
           H          2.032702738147     1.356772316270    -0.823801746826     1.007825032070
           H         -0.040745757885    -2.398478701473    -0.942436804841     1.007825032070
           H         -1.428566041746     0.689201681418     3.074636684143     1.007825032070
           H          3.903142851265     0.252067924785    -2.027569595758     1.007825032070
           H          1.923114291910    -3.334040246583    -2.142402980360     1.007825032070
           H         -3.399387763674     1.783719052363     2.867989863407     1.007825032070

  Basis Set: AUG-CC-PVTZ
    Blend: AUG-CC-PVTZ
  Basis Set: (AUG-CC-PVTZ AUX)
    Blend: AUG-CC-PVTZ-JKFIT
  Basis Set: (AUG-CC-PVTZ AUX)
    Blend: AUG-CC-PVTZ-JKFIT
	 Reference Energy          =    -650.1786145593356423 [Eh]
	 Singles Energy            =      -0.0000000000000003 [Eh]
	 Same-Spin Energy          =      -0.6762603545545229 [Eh]
	 Opposite-Spin Energy      =      -2.0170975250290710 [Eh]
	 Correlation Energy        =      -2.6933578795835946 [Eh]
	 Total Energy              =    -652.8719724389192152 [Eh]

	 ================> DF-SCS-MP2 Energies <==================
	-----------------------------------------------------------
	 SCS Same-Spin Scale       =       0.3333333333333333 [-]
	 SCS Opposite-Spin Scale   =       1.2000000000000000 [-]
	 SCS Same-Spin Energy      =      -0.2254201181848410 [Eh]
	 SCS Opposite-Spin Energy  =      -2.4205170300348851 [Eh]
	 SCS Correlation Energy    =      -2.6459371482197267 [Eh]
	 SCS Total Energy          =    -652.8245517075553153 [Eh]
	-----------------------------------------------------------

  -Total Gradient:
     Atom            X                  Y                   Z
    ------   -----------------  -----------------  -----------------
       1        0.005142146014    -0.002575052229    -0.006536500270
       2        0.000887066787    -0.000586442505     0.004472131982
       3       -0.002118039945     0.002569528059     0.001817502251
       4       -0.003232942467     0.000012850423     0.001704401346
       5       -0.002049297792     0.001169782826    -0.001576376109
       6       -0.003466517637     0.004109638330     0.002821183660
       7       -0.005281974803     0.000514064395     0.002856172591
       8       -0.003646974951     0.001909649254     0.002047432073
       9        0.001205305623    -0.000588669659    -0.002154524375
      10       -0.004359777971     0.002520606583    -0.003490181442
      11        0.010783748338    -0.006046345383     0.003825922789
      12        0.006187225500    -0.003344277784    -0.003877988135
      13        0.002051472421    -0.001151689516     0.001170119197
      14       -0.001501160382     0.000852124935    -0.000630944174
      15       -0.001607278929     0.000923118168    -0.001458647156
      16       -0.000847576763     0.000483414866    -0.002375099762
      17        0.001067313251     0.001159398474    -0.000298803489
      18       -0.000442957301    -0.001341086378    -0.000379622497
      19       -0.000938000723     0.000446510672     0.001539319349
      20        0.001350804708    -0.000510504735    -0.000709483718
      21        0.001104636526    -0.000619825194    -0.000751167784
      22       -0.000287219512     0.000093206399     0.001985153671

*** Psi4 exiting successfully. Buy a developer a beer!
