                               Psi4 1.1 release

  ==> Input File <==

--------------------------------------------------------------------------

memory 5000 mb

molecule butane {
  symmetry C1
  0 1
  H      2.018   1.874   -9.881
  H      1.804   0.381   -8.997
  H      1.570   1.914   -8.193
  C      2.142   1.395   -8.932
  H      4.169   2.051   -9.210
  H      3.731   1.788   -7.539
  C      3.631   1.416   -8.537
  H      3.665   -0.647   -7.940
  H      4.104   -0.384   -9.610
  C      4.203   -0.012   -8.612
  H      6.088   -0.983   -8.270
  H      5.791   0.381   -7.220
  H      6.230   0.644   -8.890
  C      5.691   0.009   -8.218
  units Angstrom
}

dih_string = "10 7 4 3 130"
set optking fixed_dihedral = $dih_string

optimize('MP2/aug-cc-pvtz')
--------------------------------------------------------------------------

    Molecular point group: c1
  Charge       = 0
  Multiplicity = 1
  Basis Set: AUG-CC-PVTZ
    Blend: AUG-CC-PVTZ
  Basis Set: (AUG-CC-PVTZ AUX)
    Blend: AUG-CC-PVTZ-JKFIT
  @DF-RHF Final Energy:  -157.34758026044469
    Total Energy =                       -157.3475802604446869
  Basis Set: (AUG-CC-PVTZ AUX)
    Blend: AUG-CC-PVTZ-RI
    Molecular point group: c1
  Basis Set: AUG-CC-PVTZ
    Blend: AUG-CC-PVTZ
  Basis Set: (AUG-CC-PVTZ AUX)
    Blend: AUG-CC-PVTZ-JKFIT
  Basis Set: (AUG-CC-PVTZ AUX)
    Blend: AUG-CC-PVTZ-JKFIT
	 Reference Energy          =    -157.3475802604446869 [Eh]
	 Singles Energy            =      -0.0000000000000000 [Eh]
	 Same-Spin Energy          =      -0.1654792883066596 [Eh]
	 Opposite-Spin Energy      =      -0.6394484524176144 [Eh]
	 Correlation Energy        =      -0.8049277407242740 [Eh]
	 Total Energy              =    -158.1525080011689681 [Eh]
	 SCS Total Energy          =    -158.1700781661147062 [Eh]
  @DF-RHF Final Energy:  -157.35047962390479
    Total Energy =                       -157.3504796239047892
  @DF-RHF Final Energy:  -157.35137800396507
    Total Energy =                       -157.3513780039650669
  @DF-RHF Final Energy:  -157.35167751191466
    Total Energy =                       -157.3516775119146587
  @DF-RHF Final Energy:  -157.35167066525858
    Total Energy =                       -157.3516706652585810
  @DF-RHF Final Energy:  -157.35167748894960
    Total Energy =                       -157.3516774889496048
  @DF-RHF Final Energy:  -157.35167084619482
    Total Energy =                       -157.3516708461948213
  Charge       = 0
  Multiplicity = 1
  Basis Set: AUG-CC-PVTZ
    Blend: AUG-CC-PVTZ
  Basis Set: (AUG-CC-PVTZ AUX)
    Blend: AUG-CC-PVTZ-JKFIT

    Orbital Energies (a.u.)
    -----------------------

    Doubly Occupied:

       1A    -11.211724     2A    -11.210949     3A    -11.205960
       4A    -11.205600     5A     -1.072770     6A     -0.980292
       7A     -0.861891     8A     -0.788885     9A     -0.638975
      10A     -0.583281    11A     -0.577545    12A     -0.569910
      13A     -0.510814    14A     -0.497294    15A     -0.470369
      16A     -0.457654    17A     -0.455401

  @DF-RHF Final Energy:  -157.35166141781841

   => Energetics <=

    Nuclear Repulsion Energy =            131.2935938222355787
    One-Electron Energy =                -470.6918819923283195
    Two-Electron Energy =                 182.0466267522743635
    DFT Exchange-Correlation Energy =       0.0000000000000000
    Empirical Dispersion Energy =           0.0000000000000000
    PCM Polarization Energy =               0.0000000000000000
    EFP Energy =                            0.0000000000000000
    Total Energy =                       -157.3516614178184057
  Basis Set: (AUG-CC-PVTZ AUX)
    Blend: AUG-CC-PVTZ-RI
    Molecular point group: c1
  Basis Set: AUG-CC-PVTZ
    Blend: AUG-CC-PVTZ
  Basis Set: (AUG-CC-PVTZ AUX)
    Blend: AUG-CC-PVTZ-JKFIT
  Basis Set: (AUG-CC-PVTZ AUX)
    Blend: AUG-CC-PVTZ-JKFIT
	 Reference Energy          =    -157.3516614178184057 [Eh]
	 Singles Energy            =      -0.0000000000000000 [Eh]
	 Same-Spin Energy          =      -0.1654540712082760 [Eh]
	 Opposite-Spin Energy      =      -0.6398633359489461 [Eh]
	 Correlation Energy        =      -0.8053174071572220 [Eh]
	 Total Energy              =    -158.1569788249756243 [Eh]

	 ================> DF-SCS-MP2 Energies <==================
	-----------------------------------------------------------
	 SCS Same-Spin Scale       =       0.3333333333333333 [-]
	 SCS Opposite-Spin Scale   =       1.2000000000000000 [-]
	 SCS Same-Spin Energy      =      -0.0551513570694253 [Eh]
	 SCS Opposite-Spin Energy  =      -0.7678360031387352 [Eh]
	 SCS Correlation Energy    =      -0.8229873602081605 [Eh]
	 SCS Total Energy          =    -158.1746487780265795 [Eh]
	-----------------------------------------------------------

  -Total Gradient:
     Atom            X                  Y                   Z
    ------   -----------------  -----------------  -----------------
       1       -0.000069266602     0.000128481319    -0.000130403999
       2        0.000011182962     0.000000879046    -0.000033101339
       3       -0.000332426029    -0.001559887908     0.001040456964
       4        0.000309929676     0.001767451689    -0.000701676569
       5        0.000101342561     0.000100488002    -0.000168478929
       6        0.000009163131     0.000036136423     0.000101309787
       7        0.000389373408    -0.000278252143    -0.001473775461
       8       -0.000034030202    -0.000055244430     0.000061615630
       9       -0.000019452468    -0.000020132115    -0.000106584051
      10       -0.000320039783    -0.000174183690     0.001464988695
      11        0.000039718311    -0.000088326417    -0.000022591043
      12        0.000034183541     0.000049472469     0.000143067157
      13        0.000128494193     0.000097231419    -0.000087535494
      14       -0.000248172702    -0.000004113663    -0.000087291346

  **** Optimization is complete! (in 8 steps) ****
    Final optimized geometry and variables:
    Molecular point group: c1

    Geometry (in Angstrom), charge = 0, multiplicity = 1:

    H           -1.938099095862     1.165428895676    -1.336195629551
    H           -2.168488132349    -0.312934553950    -0.424362489326
    H           -2.396321850308     1.230056771547     0.361774216661
    C           -1.782942969158     0.703642239766    -0.364824603269
    H            0.267142769419     1.360402306570    -0.607799057460
    H           -0.189194054539     1.073600640602     1.049416925994
    C           -0.305095944549     0.690915359167     0.034905997010
    H           -0.244866818648    -1.352915528090     0.648199148773
    H            0.183022586916    -1.100522426193    -1.028147354099
    C            0.309971326297    -0.695273304858    -0.022596112266
    H            2.201951864846    -1.699412542003     0.312397174436
    H            1.919575208313    -0.313473750250     1.360695902660
    H            2.350731634626    -0.065441785996    -0.325718153281
    C            1.779289229878    -0.698006710221     0.351652970609

*** Psi4 exiting successfully. Buy a developer a beer!
