                               Psi4 1.1 release

  ==> Input File <==

--------------------------------------------------------------------------

memory 5 Gb

molecule phepyrOH_cation {
  symmetry C1
  1 1
  C      1.885   -1.036   -0.112
  C      2.878   -1.652   2.002
  C      0.807   -0.463   0.561
  C      1.800   -1.079   2.676
  C      4.440   -1.719   -1.322
  C      4.716   -3.305   0.469
  C      5.517   -2.309   -1.970
  C      5.785   -3.855   -0.224
  C      2.921   -1.631   0.608
  C      4.040   -2.225   -0.090
  C      0.764   -0.484   1.955
  N      6.150   -3.348   -1.409
  O      -0.288   0.076   2.612
  H      1.904   -1.012   -1.199
  H      3.678   -2.112   2.578
  H      0.003   -0.001   -0.006
  H      1.772   -1.098   3.762
  H      3.931   -0.877   -1.782
  H      4.425   -3.721   1.429
  H      5.897   -1.982   -2.928
  H      6.368   -4.693   0.134
  H      6.938   -3.767   -1.902
  H      -0.175   -0.018   3.571
  units Angstrom
}

dih_string = "1 9 10 5 30"
set optking fixed_dihedral = $dih_string

optimize('MP2/aug-cc-PVTZ')
--------------------------------------------------------------------------

    Molecular point group: c1
  Charge       = 1
  Multiplicity = 1
  Basis Set: AUG-CC-PVTZ
    Blend: AUG-CC-PVTZ
  Basis Set: (AUG-CC-PVTZ AUX)
    Blend: AUG-CC-PVTZ-JKFIT
  @DF-RHF Final Energy:  -551.67601575646358
    Total Energy =                       -551.6760157564635847
  Basis Set: (AUG-CC-PVTZ AUX)
    Blend: AUG-CC-PVTZ-RI
    Molecular point group: c1
  Basis Set: AUG-CC-PVTZ
    Blend: AUG-CC-PVTZ
  Basis Set: (AUG-CC-PVTZ AUX)
    Blend: AUG-CC-PVTZ-JKFIT
  Basis Set: (AUG-CC-PVTZ AUX)
    Blend: AUG-CC-PVTZ-JKFIT
	 Reference Energy          =    -551.6760157564635847 [Eh]
	 Singles Energy            =      -0.0000000000000001 [Eh]
	 Same-Spin Energy          =      -0.5966781734801837 [Eh]
	 Opposite-Spin Energy      =      -1.8256343029185955 [Eh]
	 Correlation Energy        =      -2.4223124763987793 [Eh]
	 Total Energy              =    -554.0983282328624000 [Eh]
	 SCS Total Energy          =    -554.0656696444592626 [Eh]
  @DF-RHF Final Energy:  -551.68159626025738
    Total Energy =                       -551.6815962602573791
  @DF-RHF Final Energy:  -551.68297323375373
    Total Energy =                       -551.6829732337537280
  @DF-RHF Final Energy:  -551.68295343873615
    Total Energy =                       -551.6829534387361491
  Charge       = 1
  Multiplicity = 1
  Basis Set: AUG-CC-PVTZ
    Blend: AUG-CC-PVTZ
  Basis Set: (AUG-CC-PVTZ AUX)
    Blend: AUG-CC-PVTZ-JKFIT

    Orbital Energies (a.u.)
    -----------------------

    Doubly Occupied:

       1A    -20.708986     2A    -15.826702     3A    -11.478777
       4A    -11.478585     5A    -11.448801     6A    -11.435703
       7A    -11.408639     8A    -11.408339     9A    -11.380277
      10A    -11.376744    11A    -11.372140    12A    -11.355779
      13A    -11.348998    14A     -1.532205    15A     -1.505658
      16A     -1.318332    17A     -1.266458    18A     -1.236782
      19A     -1.157234    20A     -1.156429    21A     -1.061663
      22A     -1.057489    23A     -0.979932    24A     -0.961074
      25A     -0.953974    26A     -0.873301    27A     -0.861642
      28A     -0.855401    29A     -0.819662    30A     -0.799779
      31A     -0.784127    32A     -0.770549    33A     -0.758205
      34A     -0.731530    35A     -0.723324    36A     -0.712767
      37A     -0.702814    38A     -0.687417    39A     -0.662244
      40A     -0.637689    41A     -0.619478    42A     -0.569160
      43A     -0.538409    44A     -0.474444    45A     -0.436332

  @DF-RHF Final Energy:  -551.68295616560431

   => Energetics <=

    Nuclear Repulsion Energy =            713.6864630682774759
    One-Electron Energy =               -2150.2708874086679316
    Two-Electron Energy =                 884.9014681747860323
    DFT Exchange-Correlation Energy =       0.0000000000000000
    Empirical Dispersion Energy =           0.0000000000000000
    PCM Polarization Energy =               0.0000000000000000
    EFP Energy =                            0.0000000000000000
    Total Energy =                       -551.6829561656043097
  Basis Set: (AUG-CC-PVTZ AUX)
    Blend: AUG-CC-PVTZ-RI
    Molecular point group: c1
  Basis Set: AUG-CC-PVTZ
    Blend: AUG-CC-PVTZ
  Basis Set: (AUG-CC-PVTZ AUX)
    Blend: AUG-CC-PVTZ-JKFIT
  Basis Set: (AUG-CC-PVTZ AUX)
    Blend: AUG-CC-PVTZ-JKFIT
	 Reference Energy          =    -551.6829561656043097 [Eh]
	 Singles Energy            =      -0.0000000000000003 [Eh]
	 Same-Spin Energy          =      -0.5957809625868656 [Eh]
	 Opposite-Spin Energy      =      -1.8234706057963561 [Eh]
	 Correlation Energy        =      -2.4192515683832223 [Eh]
	 Total Energy              =    -554.1022077339874841 [Eh]

	 ================> DF-SCS-MP2 Energies <==================
	-----------------------------------------------------------
	 SCS Same-Spin Scale       =       0.3333333333333333 [-]
	 SCS Opposite-Spin Scale   =       1.2000000000000000 [-]
	 SCS Same-Spin Energy      =      -0.1985936541956219 [Eh]
	 SCS Opposite-Spin Energy  =      -2.1881647269556272 [Eh]
	 SCS Correlation Energy    =      -2.3867583811512496 [Eh]
	 SCS Total Energy          =    -554.0697145467555629 [Eh]
	-----------------------------------------------------------

  -Total Gradient:
     Atom            X                  Y                   Z
    ------   -----------------  -----------------  -----------------
       1       -0.000296179215    -0.000835386205     0.000016285797
       2        0.000027544319     0.000026067246     0.000078789847
       3       -0.000088901696     0.000110540461     0.000069018860
       4        0.000052738039    -0.000088047274    -0.000032126951
       5        0.000579397032     0.000488017341     0.000383205917
       6        0.000073280349    -0.000039737109    -0.000041088605
       7       -0.000009764920     0.000078120197    -0.000023437716
       8       -0.000043549656    -0.000068150729     0.000088088540
       9        0.000809784992     0.001428144086     0.000120948994
      10       -0.001048323921    -0.001128432378    -0.000576816227
      11       -0.000008580194    -0.000034698195     0.000003172362
      12       -0.000000887306     0.000013527694    -0.000018961721
      13        0.000007340923     0.000014329651    -0.000003082362
      14       -0.000019281822    -0.000001167847    -0.000004888944
      15       -0.000016306125     0.000021506099    -0.000003436983
      16        0.000041915349    -0.000022169726    -0.000020500324
      17       -0.000013575110     0.000018312497    -0.000012347024
      18       -0.000022392558    -0.000003810591     0.000015385184
      19       -0.000011478913     0.000016622710    -0.000013600220
      20       -0.000004407455    -0.000015766128     0.000005969136
      21        0.000005581059     0.000015798052    -0.000009306375
      22       -0.000012572603     0.000007174334     0.000006255107
      23       -0.000001380573    -0.000000794182    -0.000027526289

  **** Optimization is complete! (in 5 steps) ****
    Final optimized geometry and variables:
    Molecular point group: c1

    Geometry (in Angstrom), charge = 1, multiplicity = 1:

    C           -1.280557180651     0.739520433072    -0.549616886606
    C           -0.294993419148     0.100431027190     1.550414833892
    C           -2.348900610673     1.297528543698     0.116779335745
    C           -1.354107993792     0.674819627733     2.222902891880
    C            1.298635409296     0.016494042658    -1.794158820067
    C            1.584410442479    -1.552407046682    -0.016194588675
    C            2.356723265802    -0.559017999496    -2.450024818399
    C            2.640006906864    -2.104786451866    -0.695543220491
    C           -0.234865886947     0.131029223460     0.154245271710
    C            0.873858262317    -0.468179724222    -0.549326009201
    C           -2.390423369748     1.273321303583     1.509321362926
    N            2.996491169761    -1.598239822115    -1.887875284918
    O           -3.456839525298     1.844812027392     2.092410345400
    H           -1.284272550536     0.740155606907    -1.629296495402
    H            0.512914537119    -0.329284119725     2.123384754483
    H           -3.168076620249     1.749068812477    -0.420098341864
    H           -1.375727113233     0.666483586912     3.302949652585
    H            0.818487030053     0.868993466745    -2.245601106779
    H            1.293908155501    -1.992309055068     0.923531802042
    H            2.725322940540    -0.217000513753    -3.402710423496
    H            3.208550348986    -2.944880903339    -0.333065949568
    H            3.775987799940    -2.014362871630    -2.380400053397
    H           -3.397094829250     1.774055241480     3.051746270076

*** Psi4 exiting successfully. Buy a developer a beer!
