                              Psi4 1.0.0 Driver

  ==> Input File <==

--------------------------------------------------------------------------

memory 1000 mb

molecule butane {
  symmetry C1
  0 1
  H      1.604   0.760   -8.260
  H      1.745   2.388   -8.880
  H      2.043   1.024   -9.930
  C      2.142   1.395   -8.932
  H      4.169   2.051   -9.210
  H      3.731   1.788   -7.539
  C      3.631   1.416   -8.537
  H      3.401   -0.719   -8.574
  H      4.742   -0.133   -9.528
  C      4.203   -0.012   -8.612
  H      5.550   -1.240   -7.476
  H      4.615   -0.128   -6.507
  H      5.955   0.459   -7.461
  C      5.153   -0.248   -7.424
  units Angstrom
}

dih_string = "4 7 10 14 220"
set optking fixed_dihedral = $dih_string

optimize('MP2/6-31G(d)')
--------------------------------------------------------------------------

    Molecular point group: c1
  Charge       = 0
  Multiplicity = 1
  Basis Set: 6-31G(D)
  Basis Set:
  @DF-RHF Final Energy:  -157.28942615332016
    Total Energy =                       -157.2894261533201075
  Basis Set:
    Molecular point group: c1
  Basis Set: 6-31G(D)
  Basis Set:
  Basis Set:
	 Reference Energy          =    -157.2894261533201643 [Eh]
	 Singles Energy            =      -0.0000000000000000 [Eh]
	 Same-Spin Energy          =      -0.1244067811375342 [Eh]
	 Opposite-Spin Energy      =      -0.4203504640681143 [Eh]
	 Correlation Energy        =      -0.5447572452056484 [Eh]
	 Total Energy              =    -157.8341833985258233 [Eh]
	 SCS Total Energy          =    -157.8353156372477599 [Eh]
  Basis Set: 6-31G(D)
  Basis Set:
  @DF-RHF Final Energy:  -157.29240469065655
    Total Energy =                       -157.2924046906566957
  Basis Set:
  Basis Set: 6-31G(D)
  Basis Set:
  @DF-RHF Final Energy:  -157.29327384649247
    Total Energy =                       -157.2932738464924114
  @DF-RHF Final Energy:  -157.29359439121271
    Total Energy =                       -157.2935943912128494
  @DF-RHF Final Energy:  -157.29367282052627
    Total Energy =                       -157.2936728205262966
  @DF-RHF Final Energy:  -157.29369584956584
    Total Energy =                       -157.2936958495659496
  @DF-RHF Final Energy:  -157.29368567234599
    Total Energy =                       -157.2936856723461574
  @DF-RHF Final Energy:  -157.29374700136779
    Total Energy =                       -157.2937470013678762
  @DF-RHF Final Energy:  -157.29364144192010
    Total Energy =                       -157.2936414419200446
  @DF-RHF Final Energy:  -157.29366462623699
    Total Energy =                       -157.2936646262372449
  @DF-RHF Final Energy:  -157.29367800675570
    Total Energy =                       -157.2936780067555560
	 Singles Energy            =      -0.0000000000000000 [Eh]
	 Same-Spin Energy          =      -0.1243278265767818 [Eh]
	 Opposite-Spin Energy      =      -0.4223544922256833 [Eh]
	 Correlation Energy        =      -0.5466823188024652 [Eh]
	 Total Energy              =    -157.8403603255581515 [Eh]
	 SCS Total Energy          =    -157.8419460062854398 [Eh]
  Charge       = 0
  Multiplicity = 1
  Basis Set: 6-31G(D)
  Basis Set:

    Orbital Energies (a.u.)
    -----------------------

    Doubly Occupied:

       1A    -11.215561     2A    -11.214990     3A    -11.210441
       4A    -11.210435     5A     -1.068428     6A     -0.979518
       7A     -0.859326     8A     -0.786599     9A     -0.633428
      10A     -0.587092    11A     -0.581711    12A     -0.557896
      13A     -0.510891    14A     -0.501792    15A     -0.464892
      16A     -0.457025    17A     -0.454773

  @DF-RHF Final Energy:  -157.29367556502257

   => Energetics <=

    Nuclear Repulsion Energy =            130.8284379100517754
    One-Electron Energy =                -469.6546309534581951
    Two-Electron Energy =                 181.5325174783839088
    DFT Exchange-Correlation Energy =       0.0000000000000000
    Empirical Dispersion Energy =           0.0000000000000000
    PCM Polarization Energy =               0.0000000000000000
    EFP Energy =                            0.0000000000000000
    Total Energy =                       -157.2936755650225109
  Basis Set:
    Molecular point group: c1
  Basis Set: 6-31G(D)
  Basis Set:
  Basis Set:
	 Reference Energy          =    -157.2936755650225678 [Eh]
	 Singles Energy            =      -0.0000000000000000 [Eh]
	 Same-Spin Energy          =      -0.1243289871347530 [Eh]
	 Opposite-Spin Energy      =      -0.4223542409248663 [Eh]
	 Correlation Energy        =      -0.5466832280596193 [Eh]
	 Total Energy              =    -157.8403587930821743 [Eh]

	 ================> DF-SCS-MP2 Energies <==================
	-----------------------------------------------------------
	 SCS Same-Spin Scale       =       0.3333333333333333 [-]
	 SCS Opposite-Spin Scale   =       1.2000000000000000 [-]
	 SCS Same-Spin Energy      =      -0.0414429957115843 [Eh]
	 SCS Opposite-Spin Energy  =      -0.5068250891098395 [Eh]
	 SCS Correlation Energy    =      -0.5482680848214239 [Eh]
	 SCS Total Energy          =    -157.8419436498439836 [Eh]
	-----------------------------------------------------------

  -Total Gradient:
     Atom            X                  Y                   Z
    ------   -----------------  -----------------  -----------------
       1        0.000055508002    -0.000008341874    -0.000013263216
       2        0.000004162593    -0.000021332295     0.000004283530
       3       -0.000022671862     0.000029226914     0.000006816707
       4       -0.000817295454    -0.000385331715     0.002704909189
       5       -0.000106784285     0.000049757223    -0.000002733104
       6        0.000117048041    -0.000044687525     0.000047106430
       7        0.000153071017     0.000071189754    -0.003265899838
       8       -0.000101804970     0.000051996641    -0.000071420507
       9        0.000062134347    -0.000071809498     0.000073088000
      10        0.002783966977     0.001345022069    -0.001060274440
      11       -0.000013370261     0.000017817029     0.000009560840
      12       -0.000012925828     0.000028701836    -0.000047765499
      13        0.000013420378    -0.000034341826     0.000010437758
      14       -0.002114458696    -0.001027866733     0.001605154150

  **** Optimization is complete! (in 12 steps) ****
    Final optimized geometry and variables:
    Molecular point group: c1

    Geometry (in Angstrom), charge = 0, multiplicity = 1:

    H           -2.234384388592     0.144110491758     0.098147469016
    H           -2.072204764022     1.777538231117    -0.562954917917
    H           -1.783344077494     0.371232209329    -1.594958266360
    C           -1.650581482699     0.768586648828    -0.584021611558
    H            0.388643991166     1.448780700020    -0.822178150584
    H           -0.097946367657     1.169497163943     0.835442410829
    C           -0.179405635368     0.765676244561    -0.181313361784
    H           -0.351795897942    -1.386131934389    -0.173597083554
    H            0.963120696129    -0.797604644092    -1.167128793160
    C            0.447966015166    -0.636295503946    -0.213917211773
    H            1.843945559667    -1.887500507009     0.898714455035
    H            0.875113971928    -0.798699938687     1.902341043118
    H            2.220667352220    -0.160803820752     0.951454336106
    C            1.402864933881    -0.887924240933     0.948573780963

*** Psi4 exiting successfully. Buy a developer a beer!
