                               Psi4 1.1 release

  ==> Input File <==

--------------------------------------------------------------------------

memory 1000 mb

molecule butane {
  symmetry C1
  0 1
  H      1.604   0.760   -8.260
  H      1.745   2.388   -8.880
  H      2.043   1.024   -9.930
  C      2.142   1.395   -8.932
  H      4.169   2.051   -9.210
  H      3.731   1.788   -7.539
  C      3.631   1.416   -8.537
  H      3.665   -0.647   -7.940
  H      4.104   -0.384   -9.610
  C      4.203   -0.012   -8.612
  H      5.900   0.899   -7.662
  H      6.295   -0.010   -9.101
  H      5.914   -0.848   -7.616
  C      5.691   0.009   -8.218
  units Angstrom
}

dih_string = "7 10 14 13 140"
set optking fixed_dihedral = $dih_string

optimize('MP2/aug-cc-pvtz')
--------------------------------------------------------------------------

    Molecular point group: c1
  Charge       = 0
  Multiplicity = 1
  Basis Set: AUG-CC-PVTZ
    Blend: AUG-CC-PVTZ
  Basis Set: (AUG-CC-PVTZ AUX)
    Blend: AUG-CC-PVTZ-JKFIT
  @DF-RHF Final Energy:  -157.34861657624617
    Total Energy =                       -157.3486165762461724
  Basis Set: (AUG-CC-PVTZ AUX)
    Blend: AUG-CC-PVTZ-RI
    Molecular point group: c1
  Basis Set: AUG-CC-PVTZ
    Blend: AUG-CC-PVTZ
  Basis Set: (AUG-CC-PVTZ AUX)
    Blend: AUG-CC-PVTZ-JKFIT
  Basis Set: (AUG-CC-PVTZ AUX)
    Blend: AUG-CC-PVTZ-JKFIT
	 Reference Energy          =    -157.3486165762461724 [Eh]
	 Singles Energy            =      -0.0000000000000000 [Eh]
	 Same-Spin Energy          =      -0.1654607944179595 [Eh]
	 Opposite-Spin Energy      =      -0.6393287882077714 [Eh]
	 Correlation Energy        =      -0.8047895826257309 [Eh]
	 Total Energy              =    -158.1534061588719169 [Eh]
	 SCS Total Energy          =    -158.1709647202348208 [Eh]
  @DF-RHF Final Energy:  -157.35144776963438
    Total Energy =                       -157.3514477696343761
  @DF-RHF Final Energy:  -157.35233891439566
    Total Energy =                       -157.3523389143956592
  @DF-RHF Final Energy:  -157.35266407879107
    Total Energy =                       -157.3526640787910651
  @DF-RHF Final Energy:  -157.35269575377782
    Total Energy =                       -157.3526957537778230
  @DF-RHF Final Energy:  -157.35269916774450
    Total Energy =                       -157.3526991677445039
  @DF-RHF Final Energy:  -157.35263907595285
    Total Energy =                       -157.3526390759528510
  @DF-RHF Final Energy:  -157.35269449378927
    Total Energy =                       -157.3526944937892722
  @DF-RHF Final Energy:  -157.35266829062979
    Total Energy =                       -157.3526682906297935
  @DF-RHF Final Energy:  -157.35268524151857
    Total Energy =                       -157.3526852415185715
  @DF-RHF Final Energy:  -157.35269025747354
    Total Energy =                       -157.3526902574735402
  Charge       = 0
  Multiplicity = 1
  Basis Set: AUG-CC-PVTZ
    Blend: AUG-CC-PVTZ
  Basis Set: (AUG-CC-PVTZ AUX)
    Blend: AUG-CC-PVTZ-JKFIT

    Orbital Energies (a.u.)
    -----------------------

    Doubly Occupied:

       1A    -11.211617     2A    -11.210864     3A    -11.205926
       4A    -11.205640     5A     -1.073193     6A     -0.980810
       7A     -0.861699     8A     -0.788778     9A     -0.639600
      10A     -0.583615    11A     -0.577320    12A     -0.570034
      13A     -0.511215    14A     -0.497023    15A     -0.470390
      16A     -0.458862    17A     -0.455211

  @DF-RHF Final Energy:  -157.35268882798633

   => Energetics <=

    Nuclear Repulsion Energy =            131.3633547370484678
    One-Electron Energy =                -470.8284903299091866
    Two-Electron Energy =                 182.1124467648744201
    DFT Exchange-Correlation Energy =       0.0000000000000000
    Empirical Dispersion Energy =           0.0000000000000000
    PCM Polarization Energy =               0.0000000000000000
    EFP Energy =                            0.0000000000000000
    Total Energy =                       -157.3526888279863272
  Basis Set: (AUG-CC-PVTZ AUX)
    Blend: AUG-CC-PVTZ-RI
    Molecular point group: c1
  Basis Set: AUG-CC-PVTZ
    Blend: AUG-CC-PVTZ
  Basis Set: (AUG-CC-PVTZ AUX)
    Blend: AUG-CC-PVTZ-JKFIT
  Basis Set: (AUG-CC-PVTZ AUX)
    Blend: AUG-CC-PVTZ-JKFIT
	 Reference Energy          =    -157.3526888279863272 [Eh]
	 Singles Energy            =      -0.0000000000000001 [Eh]
	 Same-Spin Energy          =      -0.1654653101370335 [Eh]
	 Opposite-Spin Energy      =      -0.6397216467161513 [Eh]
	 Correlation Energy        =      -0.8051869568531848 [Eh]
	 Total Energy              =    -158.1578757848395185 [Eh]

	 ================> DF-SCS-MP2 Energies <==================
	-----------------------------------------------------------
	 SCS Same-Spin Scale       =       0.3333333333333333 [-]
	 SCS Opposite-Spin Scale   =       1.2000000000000000 [-]
	 SCS Same-Spin Energy      =      -0.0551551033790112 [Eh]
	 SCS Opposite-Spin Energy  =      -0.7676659760593815 [Eh]
	 SCS Correlation Energy    =      -0.8228210794383927 [Eh]
	 SCS Total Energy          =    -158.1755099074247255 [Eh]
	-----------------------------------------------------------

  -Total Gradient:
     Atom            X                  Y                   Z
    ------   -----------------  -----------------  -----------------
       1       -0.000005488840    -0.000004049680     0.000000663590
       2       -0.000002941779     0.000006711645    -0.000008098111
       3       -0.000018402406    -0.000007587322    -0.000013979696
       4        0.000063442107     0.000000836196     0.000008972009
       5        0.000010136538    -0.000003119507     0.000009964756
       6        0.000000580334     0.000026391088     0.000003630588
       7       -0.000594632816    -0.000366495316     0.002259933845
       8       -0.000007763129     0.000018209383    -0.000018891685
       9        0.000006412745    -0.000057173431     0.000002999156
      10        0.000594469215     0.000953100627    -0.002363914842
      11        0.000010191262    -0.000041396829     0.000006111041
      12        0.000018775885     0.000024016597    -0.000022367305
      13       -0.000650447920     0.001664023717     0.002682167089
      14        0.000575668803    -0.002213467165    -0.002547190437

  **** Optimization is complete! (in 12 steps) ****
    Final optimized geometry and variables:
    Molecular point group: c1

    Geometry (in Angstrom), charge = 0, multiplicity = 1:

    H           -2.353249215187     0.042330444296     0.292289420253
    H           -2.205844331926     1.696384645736    -0.291508138454
    H           -1.901050972520     0.346363804640    -1.379048761775
    C           -1.776752030012     0.699238040853    -0.356857237948
    H            0.249444435175     1.365644599764    -0.609992162909
    H           -0.201848171163     1.076844671379     1.053979227352
    C           -0.313005190770     0.692215678489     0.039347648778
    H           -0.247213968205    -1.338764136019     0.661778441821
    H            0.153247664476    -1.111298096495    -1.019364859838
    C            0.302836244249    -0.693154182243    -0.023835687180
    H            2.031686421150     0.180295127571     0.931983571249
    H            2.420310510006    -0.681008178747    -0.544312691563
    H            2.054917859345    -1.563014835701     0.941222214506
    C            1.786887362952    -0.699456692106     0.338235610323

*** Psi4 exiting successfully. Buy a developer a beer!
