                               Psi4 1.1 release

  ==> Input File <==

--------------------------------------------------------------------------

memory 1000 mb

molecule butane {
  symmetry C1
  0 1
  H      1.584   0.771   -8.632
  H      1.828   2.433   -9.114
  H      2.286   1.135   -10.189
  C      2.225   1.440   -9.166
  H      4.272   2.085   -9.072
  H      3.570   1.722   -7.514
  C      3.631   1.416   -8.537
  H      3.665   -0.647   -7.940
  H      4.104   -0.384   -9.610
  C      4.203   -0.012   -8.612
  H      6.088   -0.983   -8.270
  H      5.791   0.381   -7.220
  H      6.230   0.644   -8.890
  C      5.691   0.009   -8.218
  units Angstrom
}

dih_string = "14 10 7 4 170"
set optking fixed_dihedral = $dih_string

optimize('MP2/aug-cc-pvtz')
--------------------------------------------------------------------------

    Molecular point group: c1
  Charge       = 0
  Multiplicity = 1
  Basis Set: AUG-CC-PVTZ
    Blend: AUG-CC-PVTZ
  Basis Set: (AUG-CC-PVTZ AUX)
    Blend: AUG-CC-PVTZ-JKFIT
  @DF-RHF Final Energy:  -157.35239017212666
    Total Energy =                       -157.3523901721266611
  Basis Set: (AUG-CC-PVTZ AUX)
    Blend: AUG-CC-PVTZ-RI
    Molecular point group: c1
  Basis Set: AUG-CC-PVTZ
    Blend: AUG-CC-PVTZ
  Basis Set: (AUG-CC-PVTZ AUX)
    Blend: AUG-CC-PVTZ-JKFIT
  Basis Set: (AUG-CC-PVTZ AUX)
    Blend: AUG-CC-PVTZ-JKFIT
	 Reference Energy          =    -157.3523901721266611 [Eh]
	 Singles Energy            =      -0.0000000000000000 [Eh]
	 Same-Spin Energy          =      -0.1653789898540874 [Eh]
	 Opposite-Spin Energy      =      -0.6387306645089891 [Eh]
	 Correlation Energy        =      -0.8041096543630765 [Eh]
	 Total Energy              =    -158.1564998264897497 [Eh]
	 SCS Total Energy          =    -158.1739932994888136 [Eh]
  @DF-RHF Final Energy:  -157.35503682280984
    Total Energy =                       -157.3550368228098364
  @DF-RHF Final Energy:  -157.35582974120047
    Total Energy =                       -157.3558297412004663
  @DF-RHF Final Energy:  -157.35606398388612
    Total Energy =                       -157.3560639838861164
  Charge       = 0
  Multiplicity = 1
  Basis Set: AUG-CC-PVTZ
    Blend: AUG-CC-PVTZ
  Basis Set: (AUG-CC-PVTZ AUX)
    Blend: AUG-CC-PVTZ-JKFIT

    Orbital Energies (a.u.)
    -----------------------

    Doubly Occupied:

       1A    -11.211365     2A    -11.210728     3A    -11.206124
       4A    -11.206117     5A     -1.074360     6A     -0.982291
       7A     -0.860854     8A     -0.787918     9A     -0.640979
      10A     -0.585663    11A     -0.578366    12A     -0.567232
      13A     -0.514381    14A     -0.494973    15A     -0.469308
      16A     -0.461145    17A     -0.456689

  @DF-RHF Final Energy:  -157.35606121293401

   => Energetics <=

    Nuclear Repulsion Energy =            131.5599167064921460
    One-Electron Energy =                -471.2149729052807743
    Two-Electron Energy =                 182.2989949858546481
    DFT Exchange-Correlation Energy =       0.0000000000000000
    Empirical Dispersion Energy =           0.0000000000000000
    PCM Polarization Energy =               0.0000000000000000
    EFP Energy =                            0.0000000000000000
    Total Energy =                       -157.3560612129340086
  Basis Set: (AUG-CC-PVTZ AUX)
    Blend: AUG-CC-PVTZ-RI
    Molecular point group: c1
  Basis Set: AUG-CC-PVTZ
    Blend: AUG-CC-PVTZ
  Basis Set: (AUG-CC-PVTZ AUX)
    Blend: AUG-CC-PVTZ-JKFIT
  Basis Set: (AUG-CC-PVTZ AUX)
    Blend: AUG-CC-PVTZ-JKFIT
	 Reference Energy          =    -157.3560612129340086 [Eh]
	 Singles Energy            =      -0.0000000000000001 [Eh]
	 Same-Spin Energy          =      -0.1654573119795973 [Eh]
	 Opposite-Spin Energy      =      -0.6392234528786183 [Eh]
	 Correlation Energy        =      -0.8046807648582156 [Eh]
	 Total Energy              =    -158.1607419777922132 [Eh]

	 ================> DF-SCS-MP2 Energies <==================
	-----------------------------------------------------------
	 SCS Same-Spin Scale       =       0.3333333333333333 [-]
	 SCS Opposite-Spin Scale   =       1.2000000000000000 [-]
	 SCS Same-Spin Energy      =      -0.0551524373265324 [Eh]
	 SCS Opposite-Spin Energy  =      -0.7670681434543419 [Eh]
	 SCS Correlation Energy    =      -0.8222205807808743 [Eh]
	 SCS Total Energy          =    -158.1782817937148877 [Eh]
	-----------------------------------------------------------

  -Total Gradient:
     Atom            X                  Y                   Z
    ------   -----------------  -----------------  -----------------
       1       -0.000061404773    -0.000042544599     0.000028877424
       2       -0.000021396838     0.000069615225     0.000009256626
       3       -0.000004955347    -0.000019563919    -0.000084149779
       4        0.000602279547     0.000197267897    -0.000976167519
       5       -0.000000872703    -0.000023082211     0.000002869261
       6       -0.000023811820    -0.000020516241     0.000045789203
       7       -0.000514083581    -0.000212591874     0.000955762541
       8       -0.000011289673     0.000001740796     0.000054309979
       9       -0.000004192244     0.000019742060     0.000009308795
      10       -0.000204187641    -0.000180514472     0.001070725892
      11        0.000020316117    -0.000074174307    -0.000003623290
      12        0.000024644510     0.000022595858     0.000071866335
      13        0.000050381701     0.000043573366    -0.000049053191
      14        0.000148572746     0.000218452421    -0.001135772277

  **** Optimization is complete! (in 5 steps) ****
    Final optimized geometry and variables:
    Molecular point group: c1

    Geometry (in Angstrom), charge = 0, multiplicity = 1:

    H           -2.385577976703     0.036412394771    -0.017969601437
    H           -2.150420031101     1.722566461297    -0.463546010101
    H           -1.680616826674     0.441966803348    -1.576689573598
    C           -1.715676648474     0.727630865274    -0.526981623840
    H            0.324767383869     1.377122709684    -0.447295119477
    H           -0.363077829126     1.021234764947     1.119728537468
    C           -0.327870468525     0.681935057302     0.083577282087
    H           -0.275500000322    -1.371740626967     0.686266560181
    H            0.179691289135    -1.100236732676    -0.979398796069
    C            0.287021802104    -0.704357261600     0.031942177727
    H            2.173222888234    -1.710054751585     0.399068444024
    H            1.887745719288    -0.309643934956     1.425870545228
    H            2.330335230241    -0.085359437271    -0.260801989457
    C            1.753118039296    -0.707078818949     0.421100918919

*** Psi4 exiting successfully. Buy a developer a beer!
