                               Psi4 1.1 release

  ==> Input File <==

--------------------------------------------------------------------------

memory 1000 mb

molecule butane {
  symmetry C1
  0 1
  H      1.604   0.760   -8.260
  H      1.745   2.388   -8.880
  H      2.043   1.024   -9.930
  C      2.142   1.395   -8.932
  H      4.169   2.051   -9.210
  H      3.731   1.788   -7.539
  C      3.631   1.416   -8.537
  H      3.665   -0.647   -7.940
  H      4.104   -0.384   -9.610
  C      4.203   -0.012   -8.612
  H      5.913   -0.847   -7.617
  H      5.901   0.899   -7.662
  H      6.295   -0.009   -9.101
  C      5.691   0.009   -8.218
  units Angstrom
}

dih_string = "7 10 14 13 260"
set optking fixed_dihedral = $dih_string

optimize('MP2/aug-cc-pvtz')
--------------------------------------------------------------------------

    Molecular point group: c1
  Charge       = 0
  Multiplicity = 1
  Basis Set: AUG-CC-PVTZ
    Blend: AUG-CC-PVTZ
  Basis Set: (AUG-CC-PVTZ AUX)
    Blend: AUG-CC-PVTZ-JKFIT
  @DF-RHF Final Energy:  -157.34859417392320
    Total Energy =                       -157.3485941739232032
  Basis Set: (AUG-CC-PVTZ AUX)
    Blend: AUG-CC-PVTZ-RI
    Molecular point group: c1
  Basis Set: AUG-CC-PVTZ
    Blend: AUG-CC-PVTZ
  Basis Set: (AUG-CC-PVTZ AUX)
    Blend: AUG-CC-PVTZ-JKFIT
  Basis Set: (AUG-CC-PVTZ AUX)
    Blend: AUG-CC-PVTZ-JKFIT
	 Reference Energy          =    -157.3485941739232032 [Eh]
	 Singles Energy            =      -0.0000000000000000 [Eh]
	 Same-Spin Energy          =      -0.1654616107243395 [Eh]
	 Opposite-Spin Energy      =      -0.6393208836503963 [Eh]
	 Correlation Energy        =      -0.8047824943747358 [Eh]
	 Total Energy              =    -158.1533766682979376 [Eh]
	 SCS Total Energy          =    -158.1709331045451279 [Eh]
  @DF-RHF Final Energy:  -157.35144273290445
    Total Energy =                       -157.3514427329044452
  @DF-RHF Final Energy:  -157.35233558465271
    Total Energy =                       -157.3523355846527068
  @DF-RHF Final Energy:  -157.35265132991756
    Total Energy =                       -157.3526513299175633
  @DF-RHF Final Energy:  -157.35266449364389
    Total Energy =                       -157.3526644936438856
  Charge       = 0
  Multiplicity = 1
  Basis Set: AUG-CC-PVTZ
    Blend: AUG-CC-PVTZ
  Basis Set: (AUG-CC-PVTZ AUX)
    Blend: AUG-CC-PVTZ-JKFIT

    Orbital Energies (a.u.)
    -----------------------

    Doubly Occupied:

       1A    -11.211566     2A    -11.210830     3A    -11.205887
       4A    -11.205620     5A     -1.073025     6A     -0.980811
       7A     -0.861834     8A     -0.788524     9A     -0.639244
      10A     -0.584380    11A     -0.577908    12A     -0.568692
      13A     -0.512687    14A     -0.496096    15A     -0.470487
      16A     -0.458733    17A     -0.454850

  @DF-RHF Final Energy:  -157.35267173031758

   => Energetics <=

    Nuclear Repulsion Energy =            131.3360955505848722
    One-Electron Energy =                -470.7751838181745256
    Two-Electron Energy =                 182.0864165372721004
    DFT Exchange-Correlation Energy =       0.0000000000000000
    Empirical Dispersion Energy =           0.0000000000000000
    PCM Polarization Energy =               0.0000000000000000
    EFP Energy =                            0.0000000000000000
    Total Energy =                       -157.3526717303175815
  Basis Set: (AUG-CC-PVTZ AUX)
    Blend: AUG-CC-PVTZ-RI
    Molecular point group: c1
  Basis Set: AUG-CC-PVTZ
    Blend: AUG-CC-PVTZ
  Basis Set: (AUG-CC-PVTZ AUX)
    Blend: AUG-CC-PVTZ-JKFIT
  Basis Set: (AUG-CC-PVTZ AUX)
    Blend: AUG-CC-PVTZ-JKFIT
	 Reference Energy          =    -157.3526717303175815 [Eh]
	 Singles Energy            =      -0.0000000000000000 [Eh]
	 Same-Spin Energy          =      -0.1654397845272378 [Eh]
	 Opposite-Spin Energy      =      -0.6397083108817390 [Eh]
	 Correlation Energy        =      -0.8051480954089767 [Eh]
	 Total Energy              =    -158.1578198257265626 [Eh]

	 ================> DF-SCS-MP2 Energies <==================
	-----------------------------------------------------------
	 SCS Same-Spin Scale       =       0.3333333333333333 [-]
	 SCS Opposite-Spin Scale   =       1.2000000000000000 [-]
	 SCS Same-Spin Energy      =      -0.0551465948424126 [Eh]
	 SCS Opposite-Spin Energy  =      -0.7676499730580867 [Eh]
	 SCS Correlation Energy    =      -0.8227965679004993 [Eh]
	 SCS Total Energy          =    -158.1754682982180782 [Eh]
	-----------------------------------------------------------

  -Total Gradient:
     Atom            X                  Y                   Z
    ------   -----------------  -----------------  -----------------
       1       -0.000012676545    -0.000001198982    -0.000009519675
       2       -0.000012213113    -0.000002252749     0.000002100906
       3        0.000007836955    -0.000000360221    -0.000000335718
       4        0.000012018638     0.000007616648     0.000042195476
       5        0.000016645563    -0.000007351923     0.000002601517
       6       -0.000000192726     0.000013190422    -0.000018449807
       7       -0.000560727540    -0.000332891256     0.002155683829
       8        0.000015253729    -0.000005124026    -0.000026318316
       9       -0.000019282069    -0.000001905521    -0.000015858106
      10        0.000772134385    -0.000361254086    -0.002982829039
      11        0.000000962975     0.000025863649     0.000002204721
      12        0.000014914683     0.000013102208     0.000006682560
      13       -0.000031790686    -0.003123609732     0.000073769345
      14       -0.000202884252     0.003776175569     0.000768072307

  **** Optimization is complete! (in 6 steps) ****
    Final optimized geometry and variables:
    Molecular point group: c1

    Geometry (in Angstrom), charge = 0, multiplicity = 1:

    H           -2.353753323907     0.037363969864     0.285267777053
    H           -2.210880723503     1.688274173323    -0.308380355368
    H           -1.898850074368     0.332668627727    -1.386900118648
    C           -1.778126237192     0.692279026341    -0.366641035231
    H            0.246603184579     1.363299253345    -0.620208991441
    H           -0.207568023437     1.084706950869     1.044730251109
    C           -0.315123415801     0.692638065012     0.032577349587
    H           -0.247972612586    -1.335160894422     0.664852404594
    H            0.164875598174    -1.113286846725    -1.014656288598
    C            0.305409287791    -0.691273994805    -0.019582810052
    H            2.049139030659    -1.564392776459     0.945283329182
    H            2.044383366800     0.190854157352     0.935120843755
    H            2.420043002481    -0.714853932638    -0.531168084984
    C            1.787334821278    -0.691079246963     0.352475674563

*** Psi4 exiting successfully. Buy a developer a beer!
