                               Psi4 1.1 release

  ==> Input File <==

--------------------------------------------------------------------------

memory 5 Gb

molecule phepyrFOH_neutral {
  symmetry C1
  0 1
  C      1.885   -1.036   -0.112
  C      0.807   -0.463   0.561
  C      4.322   -3.577   0.062
  C      4.830   -1.446   -0.931
  C      1.800   -1.079   2.676
  C      5.401   -4.097   -0.634
  C      5.886   -2.062   -1.582
  C      2.921   -1.631   0.608
  C      4.038   -2.225   -0.095
  C      0.764   -0.484   1.955
  C      2.878   -1.652   2.002
  N      6.193   -3.372   -1.455
  O      -0.289   0.076   2.612
  F      3.866   -2.220   2.709
  H      1.904   -1.012   -1.199
  H      0.002   -0.002   -0.006
  H      3.727   -4.217   0.705
  H      4.638   -0.388   -1.078
  H      1.772   -1.099   3.762
  H      5.664   -5.147   -0.547
  H      6.534   -1.498   -2.245
  H      -0.175   -0.018   3.571
  units Angstrom
}

dih_string = "1 8 9 3 240"
set optking fixed_dihedral = $dih_string

optimize('MP2/aug-cc-PVTZ')
--------------------------------------------------------------------------

    Molecular point group: c1
  Charge       = 0
  Multiplicity = 1
  Basis Set: AUG-CC-PVTZ
    Blend: AUG-CC-PVTZ
  Basis Set: (AUG-CC-PVTZ AUX)
    Blend: AUG-CC-PVTZ-JKFIT
  @DF-RHF Final Energy:  -650.17361984458091
    Total Energy =                       -650.1736198445807986
  Basis Set: (AUG-CC-PVTZ AUX)
    Blend: AUG-CC-PVTZ-RI
    Molecular point group: c1
  Basis Set: AUG-CC-PVTZ
    Blend: AUG-CC-PVTZ
  Basis Set: (AUG-CC-PVTZ AUX)
    Blend: AUG-CC-PVTZ-JKFIT
  Basis Set: (AUG-CC-PVTZ AUX)
    Blend: AUG-CC-PVTZ-JKFIT
	 Reference Energy          =    -650.1736198445809123 [Eh]
	 Singles Energy            =      -0.0000000000000002 [Eh]
	 Same-Spin Energy          =      -0.6775220631284860 [Eh]
	 Opposite-Spin Energy      =      -2.0194331141312203 [Eh]
	 Correlation Energy        =      -2.6969551772597065 [Eh]
	 Total Energy              =    -652.8705750218406365 [Eh]
	 SCS Total Energy          =    -652.8227802692479145 [Eh]
    Molecular point group: c1
  Charge       = 0
  Multiplicity = 1
  Basis Set: AUG-CC-PVTZ
    Blend: AUG-CC-PVTZ
  Basis Set: (AUG-CC-PVTZ AUX)
    Blend: AUG-CC-PVTZ-JKFIT

    Orbital Energies (a.u.)
    -----------------------

    Doubly Occupied:

       1A    -26.325329     2A    -20.609519     3A    -15.563625
       4A    -11.346813     5A    -11.326008     6A    -11.273121
       7A    -11.272329     8A    -11.266621     9A    -11.263040
      10A    -11.252572    11A    -11.251790    12A    -11.242115
      13A    -11.238813    14A    -11.237412    15A     -1.645361
      16A     -1.427235    17A     -1.256388    18A     -1.184155
      19A     -1.111458    20A     -1.043170    21A     -1.034589
      22A     -1.022920    23A     -0.892805    24A     -0.877137
      25A     -0.856346    26A     -0.826701    27A     -0.774196
      28A     -0.748829    29A     -0.725747    30A     -0.711567
      31A     -0.696775    32A     -0.665900    33A     -0.661839
      34A     -0.642855    35A     -0.636679    36A     -0.615547
      37A     -0.610412    38A     -0.597907    39A     -0.580037
      40A     -0.545803    41A     -0.537725    42A     -0.534113
      43A     -0.522184    44A     -0.496616    45A     -0.419070
      46A     -0.389530    47A     -0.360996    48A     -0.348392
      49A     -0.326248

  @DF-RHF Final Energy:  -650.17987421231555

   => Energetics <=

    Nuclear Repulsion Energy =            814.6579284588772225
    One-Electron Energy =               -2504.0829276658246272
    Two-Electron Energy =                1039.2451249946318512
    DFT Exchange-Correlation Energy =       0.0000000000000000
    Empirical Dispersion Energy =           0.0000000000000000
    PCM Polarization Energy =               0.0000000000000000
    EFP Energy =                            0.0000000000000000
    Total Energy =                       -650.1798742123155535
  Basis Set: (AUG-CC-PVTZ AUX)
    Blend: AUG-CC-PVTZ-RI
    Molecular point group: c1

    Geometry (in Angstrom), charge = 0, multiplicity = 1:

       Center              X                  Y                   Z               Mass
    ------------   -----------------  -----------------  -----------------  -----------------
           C         -1.334305392889     0.766774341608    -0.773780610136    12.000000000000
           C         -2.408776818539     1.336454141936    -0.104015429309    12.000000000000
           C          1.137906347119    -1.784101268021    -0.633635983392    12.000000000000
           C          1.639901099481     0.326652052504    -1.625335435968    12.000000000000
           C         -1.411708559386     0.712123018331     1.993626877712    12.000000000000
           C          2.216488995054    -2.307112105371    -1.328798573887    12.000000000000
           C          2.696414929448    -0.289928258351    -2.276893819350    12.000000000000
           C         -0.289898767804     0.165718418698    -0.076298851093    12.000000000000
           C          0.840359750593    -0.435713681172    -0.783380938577    12.000000000000
           C         -2.446571160866     1.309234535277     1.281833811817    12.000000000000
           C         -0.349121494919     0.148264340550     1.309368659685    12.000000000000
           N          3.000659828147    -1.589028398263    -2.146105619597    14.003074004780
           O         -3.508535932942     1.873655224600     1.916030486260    15.994914619560
           F          0.640561558232    -0.423140113277     2.007706390750    18.998403224000
           H         -1.313707640347     0.791475066160    -1.854387428038     1.007825032070
           H         -3.214257296544     1.798408902960    -0.657965951959     1.007825032070
           H          0.545128405668    -2.418861805800     0.008810066853     1.007825032070
           H          1.447774343830     1.379867332412    -1.773313458681     1.007825032070
           H         -1.428860493161     0.683667086507     3.075308888292     1.007825032070
           H          2.477014586402    -3.353841272630    -1.238119108392     1.007825032070
           H          3.340976235603     0.272907404759    -2.939546686876     1.007825032070
           H         -3.399617022125     1.779998641592     2.868698262667     1.007825032070

  Basis Set: AUG-CC-PVTZ
    Blend: AUG-CC-PVTZ
  Basis Set: (AUG-CC-PVTZ AUX)
    Blend: AUG-CC-PVTZ-JKFIT
  Basis Set: (AUG-CC-PVTZ AUX)
    Blend: AUG-CC-PVTZ-JKFIT
	 Reference Energy          =    -650.1798742123155535 [Eh]
	 Singles Energy            =      -0.0000000000000004 [Eh]
	 Same-Spin Energy          =      -0.6767098816204205 [Eh]
	 Opposite-Spin Energy      =      -2.0172187307146814 [Eh]
	 Correlation Energy        =      -2.6939286123351023 [Eh]
	 Total Energy              =    -652.8738028246506246 [Eh]

	 ================> DF-SCS-MP2 Energies <==================
	-----------------------------------------------------------
	 SCS Same-Spin Scale       =       0.3333333333333333 [-]
	 SCS Opposite-Spin Scale   =       1.2000000000000000 [-]
	 SCS Same-Spin Energy      =      -0.2255699605401401 [Eh]
	 SCS Opposite-Spin Energy  =      -2.4206624768576175 [Eh]
	 SCS Correlation Energy    =      -2.6462324373977579 [Eh]
	 SCS Total Energy          =    -652.8261066497133243 [Eh]
	-----------------------------------------------------------

  -Total Gradient:
     Atom            X                  Y                   Z
    ------   -----------------  -----------------  -----------------
       1        0.004135060849    -0.004466453929    -0.006884730303
       2        0.000622410063    -0.000804450111     0.004675013706
       3       -0.004499934767     0.000325528847     0.001667762589
       4       -0.001099464275     0.003078807953     0.002248907310
       5       -0.002239553452     0.001318004499    -0.001579443364
       6       -0.004495462517     0.000582774677     0.003423064012
       7       -0.003616427792     0.004397004190     0.002402977923
       8       -0.004664907487     0.002672566510     0.003014304830
       9        0.002440625979    -0.001359946889    -0.002355886277
      10       -0.004031009725     0.002334646818    -0.003604934534
      11        0.012253870327    -0.004289421769     0.003606046386
      12        0.005847860880    -0.003421440246    -0.003853099300
      13        0.001816920341    -0.000955922956     0.001291538476
      14       -0.001508048317     0.000345800151    -0.001539055811
      15       -0.001467536074     0.001197320112    -0.001378934475
      16       -0.000768282905     0.000702697709    -0.002416875463
      17       -0.000029567406    -0.001483305441     0.000379698156
      18        0.000280809280     0.000936721137    -0.001176048913
      19       -0.001034850967     0.000263818632     0.001591336497
      20        0.001228959991    -0.000810272264    -0.000645474618
      21        0.001108553880    -0.000621477604    -0.000813984412
      22       -0.000280025903     0.000056999973     0.001947817589

*** Psi4 exiting successfully. Buy a developer a beer!
