                              Psi4 1.0.0 Driver

  ==> Input File <==

--------------------------------------------------------------------------

memory 1000 mb

molecule butane {
  symmetry C1
  0 1
  H      1.604   0.760   -8.260
  H      1.745   2.388   -8.880
  H      2.043   1.024   -9.930
  C      2.142   1.395   -8.932
  H      4.169   2.051   -9.210
  H      3.731   1.788   -7.539
  C      3.631   1.416   -8.537
  H      5.189   0.020   -9.025
  H      4.242   -0.433   -7.629
  C      4.203   -0.012   -8.612
  H      3.698   -1.873   -9.558
  H      3.260   -0.461   -10.489
  H      2.313   -0.914   -9.093
  C      3.300   -0.881   -9.506
  units Angstrom
}

dih_string = "4 7 10 14 20"
set optking fixed_dihedral = $dih_string

optimize('B3LYP/cc-PVDZ')
--------------------------------------------------------------------------

    Molecular point group: c1
  Charge       = 0
  Multiplicity = 1
  Basis Set: CC-PVDZ
   => B3LYP Composite Functional <=
  Basis Set:
  @DF-RKS Final Energy:  -158.43467052959446
    Total Energy =                       -158.4346705295944560
    Molecular point group: c1
  Basis Set: CC-PVDZ
  Basis Set:
   => B3LYP Composite Functional <=
  Basis Set: CC-PVDZ
   => B3LYP Composite Functional <=
  Basis Set:
  @DF-RKS Final Energy:  -158.44411852867722
    Total Energy =                       -158.4441185286772225
  Basis Set: CC-PVDZ
  Basis Set:
   => B3LYP Composite Functional <=
  Basis Set: CC-PVDZ
   => B3LYP Composite Functional <=
  Basis Set:
  @DF-RKS Final Energy:  -158.44889145691187
    Total Energy =                       -158.4488914569118663
  Basis Set: CC-PVDZ
  Basis Set:
  @DF-RKS Final Energy:  -158.45087081111924
    Total Energy =                       -158.4508708111192448
  @DF-RKS Final Energy:  -158.45159052522058
    Total Energy =                       -158.4515905252205812
   => B3LYP Composite Functional <=
  Basis Set:
  @DF-RKS Final Energy:  -158.45178287209416
    Total Energy =                       -158.4517828720941566
  Basis Set: CC-PVDZ
  Basis Set:
   => B3LYP Composite Functional <=
  Basis Set: CC-PVDZ
   => B3LYP Composite Functional <=
  Basis Set:
  @DF-RKS Final Energy:  -158.45179677861154
    Total Energy =                       -158.4517967786115378
  Basis Set: CC-PVDZ
  Basis Set:
   => B3LYP Composite Functional <=
  Charge       = 0
  Multiplicity = 1
  Basis Set: CC-PVDZ
   => B3LYP Composite Functional <=
  Basis Set:

    Orbital Energies (a.u.)
    -----------------------

    Doubly Occupied:

       1A    -10.180418     2A    -10.180277     3A    -10.175300
       4A    -10.175277     5A     -0.787156     6A     -0.715801
       7A     -0.640630     8A     -0.556751     9A     -0.458770
      10A     -0.445656    11A     -0.405868    12A     -0.387758
      13A     -0.373456    14A     -0.358760    15A     -0.327200
      16A     -0.321664    17A     -0.306555

  @DF-RKS Final Energy:  -158.45179858830855

   => Energetics <=

    Nuclear Repulsion Energy =            131.8401266586503766
    One-Electron Energy =                -472.1914624884917089
    Two-Electron Energy =                 202.4826602767604413
    DFT Exchange-Correlation Energy =     -20.5831230352276577
    Empirical Dispersion Energy =           0.0000000000000000
    PCM Polarization Energy =               0.0000000000000000
    EFP Energy =                            0.0000000000000000
    Total Energy =                       -158.4517985883085487
    Molecular point group: c1
  Basis Set: CC-PVDZ
  Basis Set:
   => B3LYP Composite Functional <=

  -Total Gradient:
     Atom            X                  Y                   Z
    ------   -----------------  -----------------  -----------------
       1        0.000010234817     0.000006325397     0.000003082381
       2       -0.000006969685     0.000014732512    -0.000006234888
       3       -0.000001200648    -0.000000524991     0.000002204634
       4        0.001049779402     0.000690949666    -0.003603386204
       5        0.000015373382    -0.000005750402     0.000007293112
       6        0.000000736645     0.000009116529     0.000009545789
       7       -0.002482266329    -0.001472694714     0.006496371534
       8        0.000012160880    -0.000004595582    -0.000002014700
       9        0.000008095227     0.000014729734     0.000006702213
      10        0.003573534793     0.001874061695    -0.005851990207
      11        0.000000151879    -0.000016965261     0.000002323805
      12        0.000008853385     0.000000631689     0.000008158644
      13        0.000001404517     0.000000606269    -0.000002256018
      14       -0.002157903837    -0.001098825868     0.002949078576

  **** Optimization is complete! (in 8 steps) ****
    Final optimized geometry and variables:
    Molecular point group: c1

    Geometry (in Angstrom), charge = 0, multiplicity = 1:

    H           -1.865385263168     0.474304311476     0.624573093983
    H           -1.512647701294     2.138694277181     0.116363198182
    H           -1.375408281775     0.807752847100    -1.051778290673
    C           -1.196675642304     1.089265721721    -0.002185860789
    H            0.865790166471     1.602208974800    -0.256647350580
    H            0.426724233924     1.302624610229     1.417424576785
    C            0.276179899035     0.927379205973     0.390858011640
    H            1.922711047889    -0.436188574628    -0.030756910900
    H            0.892798945050    -0.953666120292     1.294592544491
    C            0.867583801034    -0.505577277919     0.284207200905
    H            0.629782954209    -2.464279240285    -0.637454036918
    H            0.084348803058    -1.131115645924    -1.675756901002
    H           -0.912845154650    -1.651635963268    -0.298774460654
    C            0.123806575282    -1.484922944759    -0.631036594921

*** Psi4 exiting successfully. Buy a developer a beer!
