                              Psi4 1.0.0 Driver

  ==> Input File <==

--------------------------------------------------------------------------

memory 1000 mb

molecule butane {
  symmetry C1
  0 1
  H      1.604   0.760   -8.260
  H      1.745   2.388   -8.880
  H      2.043   1.024   -9.930
  C      2.142   1.395   -8.932
  H      4.169   2.051   -9.210
  H      3.731   1.788   -7.539
  C      3.631   1.416   -8.537
  H      5.006   -0.037   -9.318
  H      4.567   -0.302   -7.649
  C      4.203   -0.012   -8.612
  H      3.495   -1.978   -9.109
  H      2.733   -0.697   -10.020
  H      2.293   -0.961   -8.350
  C      3.097   -0.986   -9.057
  units Angstrom
}

dih_string = "4 7 10 14 360.001"
set optking fixed_dihedral = $dih_string

optimize('B3LYP/cc-PVDZ')
--------------------------------------------------------------------------

    Molecular point group: c1
  Charge       = 0
  Multiplicity = 1
  Basis Set: CC-PVDZ
   => B3LYP Composite Functional <=
  Basis Set:
  @DF-RKS Final Energy:  -158.43038761542095
    Total Energy =                       -158.4303876154209547
    Molecular point group: c1
  Basis Set: CC-PVDZ
  Basis Set:
   => B3LYP Composite Functional <=
  Basis Set: CC-PVDZ
   => B3LYP Composite Functional <=
  Basis Set:
  @DF-RKS Final Energy:  -158.44119673135958
    Total Energy =                       -158.4411967313595824
  Basis Set: CC-PVDZ
  Basis Set:
   => B3LYP Composite Functional <=
  Basis Set: CC-PVDZ
   => B3LYP Composite Functional <=
  Basis Set:
  @DF-RKS Final Energy:  -158.44649244802551
    Total Energy =                       -158.4464924480255092
  Basis Set: CC-PVDZ
  Basis Set:
  @DF-RKS Final Energy:  -158.44874155761693
    Total Energy =                       -158.4487415576169269
   => B3LYP Composite Functional <=
  Basis Set:
  @DF-RKS Final Energy:  -158.44956285414293
    Total Energy =                       -158.4495628541429255
  Basis Set: CC-PVDZ
  Basis Set:
   => B3LYP Composite Functional <=
  Basis Set: CC-PVDZ
   => B3LYP Composite Functional <=
  Basis Set:
  @DF-RKS Final Energy:  -158.44973107451065
    Total Energy =                       -158.4497310745106518
  Basis Set: CC-PVDZ
  Basis Set:
   => B3LYP Composite Functional <=
  Charge       = 0
  Multiplicity = 1
  Basis Set: CC-PVDZ
   => B3LYP Composite Functional <=
  Basis Set:

    Orbital Energies (a.u.)
    -----------------------

    Doubly Occupied:

       1A    -10.180293     2A    -10.180163     3A    -10.175137
       4A    -10.175110     5A     -0.785986     6A     -0.715878
       7A     -0.640512     8A     -0.556319     9A     -0.460033
      10A     -0.444382    11A     -0.403412    12A     -0.388774
      13A     -0.372684    14A     -0.360931    15A     -0.326877
      16A     -0.320936    17A     -0.304688

  @DF-RKS Final Energy:  -158.44973455371485

   => Energetics <=

    Nuclear Repulsion Energy =            131.7171433292914173
    One-Electron Energy =                -471.9516336483416126
    Two-Electron Energy =                 202.3679326729524064
    DFT Exchange-Correlation Energy =     -20.5831769076170268
    Empirical Dispersion Energy =           0.0000000000000000
    PCM Polarization Energy =               0.0000000000000000
    EFP Energy =                            0.0000000000000000
    Total Energy =                       -158.4497345537148476
    Molecular point group: c1
  Basis Set: CC-PVDZ
  Basis Set:
   => B3LYP Composite Functional <=

  -Total Gradient:
     Atom            X                  Y                   Z
    ------   -----------------  -----------------  -----------------
       1       -0.000050933047    -0.000022026205     0.000009386458
       2       -0.000045590091     0.000011670982    -0.000006946157
       3       -0.000042744702    -0.000013817767    -0.000032270432
       4        0.000292654449    -0.000077180006     0.000040710926
       5       -0.000005936780    -0.000014300017     0.000016301130
       6        0.000006402687    -0.000009234285    -0.000023257235
       7       -0.000122869641     0.000113864319     0.000004866031
       8       -0.000011581968     0.000007408386     0.000021332055
       9       -0.000005106598     0.000009735846    -0.000019399917
      10       -0.000005348935    -0.000162497273    -0.000033847537
      11       -0.000024704607    -0.000038139154    -0.000010218771
      12       -0.000041100532    -0.000016877635    -0.000032675197
      13       -0.000049481464    -0.000018108948     0.000009059462
      14        0.000153893810     0.000247944596     0.000068496847

  **** Optimization is complete! (in 7 steps) ****
    Final optimized geometry and variables:
    Molecular point group: c1

    Geometry (in Angstrom), charge = 0, multiplicity = 1:

    H           -1.763065579147     0.566092966772     0.645311564800
    H           -1.442299656724     2.190476903651     0.005576684237
    H           -1.429035042025     0.790504935171    -1.085601037615
    C           -1.149260696012     1.130796481624    -0.075258678044
    H            0.899022016374     1.614812049498    -0.517765140317
    H            0.569478403170     1.393581133848     1.190733432816
    C            0.352044392981     0.972506144440     0.193918292343
    H            1.744729221425    -0.495957192791    -0.627833048777
    H            1.414831077530    -0.717308897129     1.080581045033
    C            0.931714997263    -0.474562522299     0.118339362403
    H            0.464567551652    -2.569734704255    -0.243068763667
    H           -0.529201730373    -1.455482055818    -1.203078704693
    H           -0.863564102969    -1.679462168682     0.527830652589
    C           -0.056011141760    -1.598297318421    -0.217907972571

*** Psi4 exiting successfully. Buy a developer a beer!
