                               Psi4 1.1 release

  ==> Input File <==

--------------------------------------------------------------------------

memory 5000 mb

molecule butane {
  symmetry C1
  0 1
  H      1.544   1.238   -8.059
  H      1.879   2.330   -9.382
  H      1.969   0.603   -9.630
  C      2.142   1.395   -8.932
  H      4.169   2.051   -9.210
  H      3.731   1.788   -7.539
  C      3.631   1.416   -8.537
  H      3.665   -0.647   -7.940
  H      4.104   -0.384   -9.610
  C      4.203   -0.012   -8.612
  H      6.088   -0.983   -8.270
  H      5.791   0.381   -7.220
  H      6.230   0.644   -8.890
  C      5.691   0.009   -8.218
  units Angstrom
}

dih_string = "10 7 4 3 330"
set optking fixed_dihedral = $dih_string

optimize('MP2/aug-cc-pvtz')
--------------------------------------------------------------------------

    Molecular point group: c1
  Charge       = 0
  Multiplicity = 1
  Basis Set: AUG-CC-PVTZ
    Blend: AUG-CC-PVTZ
  Basis Set: (AUG-CC-PVTZ AUX)
    Blend: AUG-CC-PVTZ-JKFIT
  @DF-RHF Final Energy:  -157.35002843857137
    Total Energy =                       -157.3500284385713712
  Basis Set: (AUG-CC-PVTZ AUX)
    Blend: AUG-CC-PVTZ-RI
    Molecular point group: c1
  Basis Set: AUG-CC-PVTZ
    Blend: AUG-CC-PVTZ
  Basis Set: (AUG-CC-PVTZ AUX)
    Blend: AUG-CC-PVTZ-JKFIT
  Basis Set: (AUG-CC-PVTZ AUX)
    Blend: AUG-CC-PVTZ-JKFIT
	 Reference Energy          =    -157.3500284385713712 [Eh]
	 Singles Energy            =      -0.0000000000000000 [Eh]
	 Same-Spin Energy          =      -0.1654317949636127 [Eh]
	 Opposite-Spin Energy      =      -0.6391153853332530 [Eh]
	 Correlation Energy        =      -0.8045471802968657 [Eh]
	 Total Energy              =    -158.1545756188682503 [Eh]
	 SCS Total Energy          =    -158.1721108326258047 [Eh]
  @DF-RHF Final Energy:  -157.35278113306404
    Total Energy =                       -157.3527811330640418
  @DF-RHF Final Energy:  -157.35364908164078
    Total Energy =                       -157.3536490816407820
  @DF-RHF Final Energy:  -157.35397073991254
    Total Energy =                       -157.3539707399125405
  @DF-RHF Final Energy:  -157.35401173279780
    Total Energy =                       -157.3540117327978010
  Charge       = 0
  Multiplicity = 1
  Basis Set: AUG-CC-PVTZ
    Blend: AUG-CC-PVTZ
  Basis Set: (AUG-CC-PVTZ AUX)
    Blend: AUG-CC-PVTZ-JKFIT

    Orbital Energies (a.u.)
    -----------------------

    Doubly Occupied:

       1A    -11.211593     2A    -11.210835     3A    -11.205998
       4A    -11.205766     5A     -1.073764     6A     -0.981370
       7A     -0.861412     8A     -0.788584     9A     -0.639776
      10A     -0.585626    11A     -0.578042    12A     -0.567810
      13A     -0.513805    14A     -0.494505    15A     -0.470553
      16A     -0.459196    17A     -0.456373

  @DF-RHF Final Energy:  -157.35401564582278

   => Energetics <=

    Nuclear Repulsion Energy =            131.4513858497387560
    One-Electron Energy =                -471.0007856301538141
    Two-Electron Energy =                 182.1953841345922740
    DFT Exchange-Correlation Energy =       0.0000000000000000
    Empirical Dispersion Energy =           0.0000000000000000
    PCM Polarization Energy =               0.0000000000000000
    EFP Energy =                            0.0000000000000000
    Total Energy =                       -157.3540156458227841
  Basis Set: (AUG-CC-PVTZ AUX)
    Blend: AUG-CC-PVTZ-RI
    Molecular point group: c1
  Basis Set: AUG-CC-PVTZ
    Blend: AUG-CC-PVTZ
  Basis Set: (AUG-CC-PVTZ AUX)
    Blend: AUG-CC-PVTZ-JKFIT
  Basis Set: (AUG-CC-PVTZ AUX)
    Blend: AUG-CC-PVTZ-JKFIT
	 Reference Energy          =    -157.3540156458227841 [Eh]
	 Singles Energy            =      -0.0000000000000000 [Eh]
	 Same-Spin Energy          =      -0.1654706934608491 [Eh]
	 Opposite-Spin Energy      =      -0.6395328557799013 [Eh]
	 Correlation Energy        =      -0.8050035492407503 [Eh]
	 Total Energy              =    -158.1590191950635358 [Eh]

	 ================> DF-SCS-MP2 Energies <==================
	-----------------------------------------------------------
	 SCS Same-Spin Scale       =       0.3333333333333333 [-]
	 SCS Opposite-Spin Scale   =       1.2000000000000000 [-]
	 SCS Same-Spin Energy      =      -0.0551568978202830 [Eh]
	 SCS Opposite-Spin Energy  =      -0.7674394269358815 [Eh]
	 SCS Correlation Energy    =      -0.8225963247561645 [Eh]
	 SCS Total Energy          =    -158.1766119705789606 [Eh]
	-----------------------------------------------------------

  -Total Gradient:
     Atom            X                  Y                   Z
    ------   -----------------  -----------------  -----------------
       1        0.000034229072     0.000021061270    -0.000037609504
       2       -0.000002703444    -0.000004551883    -0.000025954530
       3       -0.000652751745    -0.002073450752     0.002545677028
       4        0.001045313605     0.002720764595    -0.004032450258
       5       -0.000025059520     0.000009136763     0.000039203368
       6        0.000021969380    -0.000011924247    -0.000001677329
       7       -0.001000115521    -0.001012595152     0.003853275424
       8       -0.000012174125     0.000000439543    -0.000023945688
       9       -0.000001033278    -0.000012781882     0.000030711942
      10        0.000602251744     0.000351931645    -0.002313756156
      11        0.000000056772     0.000015427686     0.000003329820
      12       -0.000004820780    -0.000003147996    -0.000012428835
      13        0.000003381130    -0.000010031145     0.000022291820
      14       -0.000008543289     0.000009721553    -0.000046667102

  **** Optimization is complete! (in 6 steps) ****
    Final optimized geometry and variables:
    Molecular point group: c1

    Geometry (in Angstrom), charge = 0, multiplicity = 1:

    H           -2.390422968517     0.519624826731     0.529859974794
    H           -2.089847384746     1.659994280974    -0.771594318898
    H           -2.003254852581    -0.083408032418    -1.058282256470
    C           -1.776385029531     0.709911716957    -0.348234159684
    H            0.258028323329     1.335544666436    -0.672143922468
    H           -0.150031518598     1.119735155532     1.010671974709
    C           -0.297220565798     0.697082225797     0.016572540517
    H           -0.266040557526    -1.361516623714     0.606307626525
    H            0.201843227304    -1.078467166685    -1.054196261226
    C            0.307031662207    -0.693281201715    -0.039215041560
    H            2.189304751290    -1.712364630221     0.307527620548
    H            1.885622280598    -0.360464768599     1.392794751112
    H            2.354652511081    -0.059489238330    -0.274372963084
    C            1.767426065006    -0.711964875941     0.369484835416

*** Psi4 exiting successfully. Buy a developer a beer!
