                               Psi4 1.1 release

  ==> Input File <==

--------------------------------------------------------------------------

memory 5000 mb

molecule butane {
  symmetry C1
  0 1
  H      1.991   2.020   -9.787
  H      1.849   0.392   -9.167
  H      1.552   1.757   -8.117
  C      2.142   1.395   -8.932
  H      4.169   2.051   -9.210
  H      3.731   1.788   -7.539
  C      3.631   1.416   -8.537
  H      3.665   -0.647   -7.940
  H      4.104   -0.384   -9.610
  C      4.203   -0.012   -8.612
  H      6.088   -0.983   -8.270
  H      5.791   0.381   -7.220
  H      6.230   0.644   -8.890
  C      5.691   0.009   -8.218
  units Angstrom
}

dih_string = "10 7 4 3 120"
set optking fixed_dihedral = $dih_string

optimize('MP2/aug-cc-pvtz')
--------------------------------------------------------------------------

    Molecular point group: c1
  Charge       = 0
  Multiplicity = 1
  Basis Set: AUG-CC-PVTZ
    Blend: AUG-CC-PVTZ
  Basis Set: (AUG-CC-PVTZ AUX)
    Blend: AUG-CC-PVTZ-JKFIT
  @DF-RHF Final Energy:  -157.34720003892284
    Total Energy =                       -157.3472000389228356
  Basis Set: (AUG-CC-PVTZ AUX)
    Blend: AUG-CC-PVTZ-RI
    Molecular point group: c1
  Basis Set: AUG-CC-PVTZ
    Blend: AUG-CC-PVTZ
  Basis Set: (AUG-CC-PVTZ AUX)
    Blend: AUG-CC-PVTZ-JKFIT
  Basis Set: (AUG-CC-PVTZ AUX)
    Blend: AUG-CC-PVTZ-JKFIT
	 Reference Energy          =    -157.3472000389228356 [Eh]
	 Singles Energy            =      -0.0000000000000000 [Eh]
	 Same-Spin Energy          =      -0.1654856440779762 [Eh]
	 Opposite-Spin Energy      =      -0.6394858657481280 [Eh]
	 Correlation Energy        =      -0.8049715098261042 [Eh]
	 Total Energy              =    -158.1521715487489530 [Eh]
	 SCS Total Energy          =    -158.1697449591799227 [Eh]
  @DF-RHF Final Energy:  -157.35012469812096
    Total Energy =                       -157.3501246981209647
  @DF-RHF Final Energy:  -157.35102410355782
    Total Energy =                       -157.3510241035578190
  @DF-RHF Final Energy:  -157.35129669588804
    Total Energy =                       -157.3512966958880384
  Charge       = 0
  Multiplicity = 1
  Basis Set: AUG-CC-PVTZ
    Blend: AUG-CC-PVTZ
  Basis Set: (AUG-CC-PVTZ AUX)
    Blend: AUG-CC-PVTZ-JKFIT

    Orbital Energies (a.u.)
    -----------------------

    Doubly Occupied:

       1A    -11.211691     2A    -11.210886     3A    -11.205887
       4A    -11.205519     5A     -1.072605     6A     -0.980138
       7A     -0.862041     8A     -0.788953     9A     -0.638684
      10A     -0.583467    11A     -0.577756    12A     -0.569564
      13A     -0.511139    14A     -0.497085    15A     -0.470375
      16A     -0.456579    17A     -0.456067

  @DF-RHF Final Energy:  -157.35127470427136

   => Energetics <=

    Nuclear Repulsion Energy =            131.2698963096309797
    One-Electron Energy =                -470.6454713131022913
    Two-Electron Energy =                 182.0243002991999788
    DFT Exchange-Correlation Energy =       0.0000000000000000
    Empirical Dispersion Energy =           0.0000000000000000
    PCM Polarization Energy =               0.0000000000000000
    EFP Energy =                            0.0000000000000000
    Total Energy =                       -157.3512747042713613
  Basis Set: (AUG-CC-PVTZ AUX)
    Blend: AUG-CC-PVTZ-RI
    Molecular point group: c1
  Basis Set: AUG-CC-PVTZ
    Blend: AUG-CC-PVTZ
  Basis Set: (AUG-CC-PVTZ AUX)
    Blend: AUG-CC-PVTZ-JKFIT
  Basis Set: (AUG-CC-PVTZ AUX)
    Blend: AUG-CC-PVTZ-JKFIT
	 Reference Energy          =    -157.3512747042713613 [Eh]
	 Singles Energy            =      -0.0000000000000000 [Eh]
	 Same-Spin Energy          =      -0.1654446449756832 [Eh]
	 Opposite-Spin Energy      =      -0.6398945909811985 [Eh]
	 Correlation Energy        =      -0.8053392359568817 [Eh]
	 Total Energy              =    -158.1566139402282545 [Eh]

	 ================> DF-SCS-MP2 Energies <==================
	-----------------------------------------------------------
	 SCS Same-Spin Scale       =       0.3333333333333333 [-]
	 SCS Opposite-Spin Scale   =       1.2000000000000000 [-]
	 SCS Same-Spin Energy      =      -0.0551482149918944 [Eh]
	 SCS Opposite-Spin Energy  =      -0.7678735091774381 [Eh]
	 SCS Correlation Energy    =      -0.8230217241693325 [Eh]
	 SCS Total Energy          =    -158.1742964284406980 [Eh]
	-----------------------------------------------------------

  -Total Gradient:
     Atom            X                  Y                   Z
    ------   -----------------  -----------------  -----------------
       1       -0.000009116264     0.000070679785    -0.000036547472
       2        0.000003659782    -0.000024862075    -0.000020124398
       3       -0.000030303623     0.000012716146     0.000059801934
       4        0.000051822611    -0.000082875204     0.000004059504
       5        0.000003395466    -0.000009761538    -0.000044470747
       6       -0.000022922904     0.000006156754     0.000016344052
       7        0.000069546228    -0.000005468386     0.000004592995
       8       -0.000016976063    -0.000015238183     0.000031470553
       9       -0.000000965515     0.000002978923    -0.000039389458
      10        0.000026485540     0.000017099613     0.000038397668
      11        0.000028051091    -0.000061458701    -0.000002539785
      12        0.000022515480     0.000020961881     0.000063066850
      13        0.000047037881     0.000036480241    -0.000035178031
      14       -0.000172229712     0.000032590746    -0.000039483667

  **** Optimization is complete! (in 5 steps) ****
    Final optimized geometry and variables:
    Molecular point group: c1

    Geometry (in Angstrom), charge = 0, multiplicity = 1:

    H           -1.976327538970     1.317502762747    -1.231263328205
    H           -2.125498022359    -0.311042584635    -0.602296119612
    H           -2.417797557740     1.062371943490     0.445667617390
    C           -1.788197975505     0.695152315593    -0.360432706768
    H            0.258659169360     1.350962671841    -0.628908660243
    H           -0.179744595453     1.087196447428     1.036255023549
    C           -0.306162100142     0.690298605962     0.028926222402
    H           -0.242354365288    -1.357710374606     0.636032955703
    H            0.196842164362    -1.093336251020    -1.035372238979
    C            0.314516720167    -0.693583122583    -0.026896767556
    H            2.209344602152    -1.690457720234     0.313461818728
    H            1.911664854064    -0.315696760872     1.371947672745
    H            2.353352648369    -0.050050909468    -0.308868338469
    C            1.780839308459    -0.691845897647     0.358684065352

*** Psi4 exiting successfully. Buy a developer a beer!
