                              Psi4 1.0.0 Driver

  ==> Input File <==

--------------------------------------------------------------------------

memory 1000 mb

molecule butane {
  symmetry C1
  0 1
  H      1.604   0.760   -8.260
  H      1.745   2.388   -8.880
  H      2.043   1.024   -9.930
  C      2.142   1.395   -8.932
  H      4.169   2.051   -9.210
  H      3.731   1.788   -7.539
  C      3.631   1.416   -8.537
  H      5.006   -0.037   -9.318
  H      4.567   -0.302   -7.649
  C      4.203   -0.012   -8.612
  H      3.495   -1.978   -9.109
  H      2.733   -0.697   -10.020
  H      2.293   -0.961   -8.351
  C      3.097   -0.986   -9.057
  units Angstrom
}

dih_string = "4 7 10 14 0.001"
set optking fixed_dihedral = $dih_string

optimize('MP2/6-31G(d)')
--------------------------------------------------------------------------

    Molecular point group: c1
  Charge       = 0
  Multiplicity = 1
  Basis Set: 6-31G(D)
  Basis Set:
  @DF-RHF Final Energy:  -157.27142556647470
    Total Energy =                       -157.2714255664745906
  Basis Set:
    Molecular point group: c1
  Basis Set: 6-31G(D)
  Basis Set:
  Basis Set:
	 Reference Energy          =    -157.2714255664747043 [Eh]
	 Singles Energy            =      -0.0000000000000000 [Eh]
	 Same-Spin Energy          =      -0.1253697037509474 [Eh]
	 Opposite-Spin Energy      =      -0.4216604363239251 [Eh]
	 Correlation Energy        =      -0.5470301400748725 [Eh]
	 Total Energy              =    -157.8184557065495710 [Eh]
	 SCS Total Energy          =    -157.8192079913137320 [Eh]
  Basis Set: 6-31G(D)
  Basis Set:
  @DF-RHF Final Energy:  -157.28249989083236
    Total Energy =                       -157.2824998908323550
  Basis Set:
  Basis Set: 6-31G(D)
  Basis Set:
  @DF-RHF Final Energy:  -157.28589675548560
    Total Energy =                       -157.2858967554855951
  @DF-RHF Final Energy:  -157.28732364645950
    Total Energy =                       -157.2873236464596403
  @DF-RHF Final Energy:  -157.28791146391487
    Total Energy =                       -157.2879114639150089
  @DF-RHF Final Energy:  -157.28796118018974
    Total Energy =                       -157.2879611801895123
	 Singles Energy            =      -0.0000000000000000 [Eh]
	 Same-Spin Energy          =      -0.1242318512309966 [Eh]
	 Opposite-Spin Energy      =      -0.4226186230999719 [Eh]
	 Correlation Energy        =      -0.5468504743309686 [Eh]
	 Total Energy              =    -157.8348116545207063 [Eh]
	 SCS Total Energy          =    -157.8365141449866940 [Eh]
  Charge       = 0
  Multiplicity = 1
  Basis Set: 6-31G(D)
  Basis Set:

    Orbital Energies (a.u.)
    -----------------------

    Doubly Occupied:

       1A    -11.216303     2A    -11.215773     3A    -11.209535
       4A    -11.209521     5A     -1.064783     6A     -0.974224
       7A     -0.876461     8A     -0.767465     9A     -0.633280
      10A     -0.612367    11A     -0.563702    12A     -0.538041
      13A     -0.523951    14A     -0.512147    15A     -0.462514
      16A     -0.456827    17A     -0.443284

  @DF-RHF Final Energy:  -157.28797992550474

   => Energetics <=

    Nuclear Repulsion Energy =            132.6615843346368422
    One-Electron Energy =                -473.3387727274955523
    Two-Electron Energy =                 183.3892084673537966
    DFT Exchange-Correlation Energy =       0.0000000000000000
    Empirical Dispersion Energy =           0.0000000000000000
    PCM Polarization Energy =               0.0000000000000000
    EFP Energy =                            0.0000000000000000
    Total Energy =                       -157.2879799255049420
  Basis Set:
    Molecular point group: c1
  Basis Set: 6-31G(D)
  Basis Set:
  Basis Set:
	 Reference Energy          =    -157.2879799255047431 [Eh]
	 Singles Energy            =      -0.0000000000000000 [Eh]
	 Same-Spin Energy          =      -0.1242217515487396 [Eh]
	 Opposite-Spin Energy      =      -0.4226122650487801 [Eh]
	 Correlation Energy        =      -0.5468340165975197 [Eh]
	 Total Energy              =    -157.8348139421022722 [Eh]

	 ================> DF-SCS-MP2 Energies <==================
	-----------------------------------------------------------
	 SCS Same-Spin Scale       =       0.3333333333333333 [-]
	 SCS Opposite-Spin Scale   =       1.2000000000000000 [-]
	 SCS Same-Spin Energy      =      -0.0414072505162465 [Eh]
	 SCS Opposite-Spin Energy  =      -0.5071347180585360 [Eh]
	 SCS Correlation Energy    =      -0.5485419685747825 [Eh]
	 SCS Total Energy          =    -157.8365218940795387 [Eh]
	-----------------------------------------------------------

  -Total Gradient:
     Atom            X                  Y                   Z
    ------   -----------------  -----------------  -----------------
       1       -0.000044399411    -0.000036209148     0.000016077415
       2       -0.000040696053     0.000019894715    -0.000005580501
       3       -0.000029874889    -0.000025121724    -0.000040279163
       4        0.000213688150    -0.000070983718     0.000033247093
       5        0.000026641384     0.000039036346     0.000001416095
       6        0.000024905092     0.000036199641     0.000018496924
       7       -0.000099841958    -0.000091655523    -0.000026514308
       8        0.000047323401    -0.000008285773     0.000001234301
       9        0.000040931744    -0.000012748596     0.000017886603
      10       -0.000130438898     0.000003124433    -0.000040108556
      11       -0.000015258776    -0.000041877383    -0.000009280758
      12       -0.000039792404     0.000000452031    -0.000039407105
      13       -0.000054099366    -0.000004417509     0.000017650498
      14        0.000100911984     0.000192592205     0.000055161461

  **** Optimization is complete! (in 7 steps) ****
    Final optimized geometry and variables:
    Molecular point group: c1

    Geometry (in Angstrom), charge = 0, multiplicity = 1:

    H           -1.761072605980     0.545958964267     0.595586191666
    H           -1.432397004044     2.167818017352    -0.013527796581
    H           -1.376826464839     0.789244755338    -1.111673096011
    C           -1.138594452610     1.117548166778    -0.097069882075
    H            0.908737307715     1.611723461783    -0.468041824877
    H            0.529694938694     1.371869032375     1.216588363185
    C            0.348911741680     0.965109020980     0.215968312664
    H            1.751453175986    -0.491299759905    -0.577744813956
    H            1.372123149129    -0.731225948163     1.106814941868
    C            0.925205485970    -0.473263016679     0.140841987962
    H            0.455763082046    -2.544842462554    -0.259681189400
    H           -0.493023765914    -1.416338427188    -1.227021728851
    H           -0.877559736934    -1.659252430092     0.480231720701
    C           -0.057995168936    -1.579466403891    -0.238032771694

*** Psi4 exiting successfully. Buy a developer a beer!
