                               Psi4 1.1 release

  ==> Input File <==

--------------------------------------------------------------------------

memory 5 Gb

molecule phepyrOH_zwitterion {
  symmetry C1
  0 1
  C      1.885   -1.036   -0.112
  C      2.878   -1.652   2.002
  C      0.807   -0.463   0.561
  C      1.800   -1.079   2.676
  C      4.716   -3.305   0.470
  C      4.441   -1.720   -1.323
  C      5.786   -3.855   -0.222
  C      5.518   -2.310   -1.969
  C      2.921   -1.631   0.608
  C      4.040   -2.226   -0.090
  C      0.764   -0.484   1.955
  N      6.152   -3.348   -1.407
  O      -0.227   0.042   2.574
  H      1.904   -1.011   -1.199
  H      3.678   -2.112   2.577
  H      0.011   -0.006   -0.025
  H      1.791   -1.108   3.764
  H      4.424   -3.721   1.430
  H      3.932   -0.878   -1.783
  H      6.368   -4.694   0.136
  H      5.898   -1.984   -2.927
  H      6.941   -3.767   -1.898
  units Angstrom
}

dih_string = "1 9 10 5 210"
set optking fixed_dihedral = $dih_string

optimize('MP2/aug-cc-PVTZ')
--------------------------------------------------------------------------

    Molecular point group: c1
  Charge       = 0
  Multiplicity = 1
  Basis Set: AUG-CC-PVTZ
    Blend: AUG-CC-PVTZ
  Basis Set: (AUG-CC-PVTZ AUX)
    Blend: AUG-CC-PVTZ-JKFIT
  @DF-RHF Final Energy:  -551.21475797469816
    Total Energy =                       -551.2147579746981592
  Basis Set: (AUG-CC-PVTZ AUX)
    Blend: AUG-CC-PVTZ-RI
    Molecular point group: c1
  Basis Set: AUG-CC-PVTZ
    Blend: AUG-CC-PVTZ
  Basis Set: (AUG-CC-PVTZ AUX)
    Blend: AUG-CC-PVTZ-JKFIT
  Basis Set: (AUG-CC-PVTZ AUX)
    Blend: AUG-CC-PVTZ-JKFIT
	 Reference Energy          =    -551.2147579746981592 [Eh]
	 Singles Energy            =      -0.0000000000000004 [Eh]
	 Same-Spin Energy          =      -0.6065349094495533 [Eh]
	 Opposite-Spin Energy      =      -1.8398800632630432 [Eh]
	 Correlation Energy        =      -2.4464149727125970 [Eh]
	 Total Energy              =    -553.6611729474107051 [Eh]
	 SCS Total Energy          =    -553.6247923537636098 [Eh]
  @DF-RHF Final Energy:  -551.22603186423487
    Total Energy =                       -551.2260318642348693
  @DF-RHF Final Energy:  -551.23478621346749
    Total Energy =                       -551.2347862134674870
  @DF-RHF Final Energy:  -551.24047161371595
    Total Energy =                       -551.2404716137159539
  @DF-RHF Final Energy:  -551.24307789885108
    Total Energy =                       -551.2430778988510838
  @DF-RHF Final Energy:  -551.24411653334971
    Total Energy =                       -551.2441165333497111
  @DF-RHF Final Energy:  -551.24468293228574
    Total Energy =                       -551.2446829322857411
  @DF-RHF Final Energy:  -551.24496557611042
    Total Energy =                       -551.2449655761104168
  @DF-RHF Final Energy:  -551.24490866184533
    Total Energy =                       -551.2449086618453293
  @DF-RHF Final Energy:  -551.24488327248775
    Total Energy =                       -551.2448832724877548
  @DF-RHF Final Energy:  -551.24459485246302
    Total Energy =                       -551.2445948524630239
  @DF-RHF Final Energy:  -551.24482936525499
    Total Energy =                       -551.2448293652549864
  @DF-RHF Final Energy:  -551.24482216050251
    Total Energy =                       -551.2448221605025083
  @DF-RHF Final Energy:  -551.24481835961183
    Total Energy =                       -551.2448183596118270
  Charge       = 0
  Multiplicity = 1
  Basis Set: AUG-CC-PVTZ
    Blend: AUG-CC-PVTZ
  Basis Set: (AUG-CC-PVTZ AUX)
    Blend: AUG-CC-PVTZ-JKFIT

    Orbital Energies (a.u.)
    -----------------------

    Doubly Occupied:

       1A    -20.476705     2A    -15.663926     3A    -11.331963
       4A    -11.331925     5A    -11.295397     6A    -11.278609
       7A    -11.264228     8A    -11.263807     9A    -11.236786
      10A    -11.235613    11A    -11.222374    12A    -11.201813
      13A    -11.201283    14A     -1.346811    15A     -1.311124
      16A     -1.167389    17A     -1.106714    18A     -1.091047
      19A     -1.011213    20A     -0.996218    21A     -0.908170
      22A     -0.894942    23A     -0.814062    24A     -0.813409
      25A     -0.794458    26A     -0.718095    27A     -0.710944
      28A     -0.681219    29A     -0.657453    30A     -0.628819
      31A     -0.623711    32A     -0.618267    33A     -0.612137
      34A     -0.582712    35A     -0.556075    36A     -0.549772
      37A     -0.524065    38A     -0.520185    39A     -0.485860
      40A     -0.473597    41A     -0.410029    42A     -0.397206
      43A     -0.370479    44A     -0.344333    45A     -0.246543

  @DF-RHF Final Energy:  -551.24479067676396

   => Energetics <=

    Nuclear Repulsion Energy =            698.5936829566510369
    One-Electron Energy =               -2133.7339739831199950
    Two-Electron Energy =                 883.8955003497050029
    DFT Exchange-Correlation Energy =       0.0000000000000000
    Empirical Dispersion Energy =           0.0000000000000000
    PCM Polarization Energy =               0.0000000000000000
    EFP Energy =                            0.0000000000000000
    Total Energy =                       -551.2447906767639552
  Basis Set: (AUG-CC-PVTZ AUX)
    Blend: AUG-CC-PVTZ-RI
    Molecular point group: c1
  Basis Set: AUG-CC-PVTZ
    Blend: AUG-CC-PVTZ
  Basis Set: (AUG-CC-PVTZ AUX)
    Blend: AUG-CC-PVTZ-JKFIT
  Basis Set: (AUG-CC-PVTZ AUX)
    Blend: AUG-CC-PVTZ-JKFIT
	 Reference Energy          =    -551.2447906767639552 [Eh]
	 Singles Energy            =      -0.0000000000000000 [Eh]
	 Same-Spin Energy          =      -0.5996552584675455 [Eh]
	 Opposite-Spin Energy      =      -1.8350765448873274 [Eh]
	 Correlation Energy        =      -2.4347318033548730 [Eh]
	 Total Energy              =    -553.6795224801188624 [Eh]

	 ================> DF-SCS-MP2 Energies <==================
	-----------------------------------------------------------
	 SCS Same-Spin Scale       =       0.3333333333333333 [-]
	 SCS Opposite-Spin Scale   =       1.2000000000000000 [-]
	 SCS Same-Spin Energy      =      -0.1998850861558485 [Eh]
	 SCS Opposite-Spin Energy  =      -2.2020918538647929 [Eh]
	 SCS Correlation Energy    =      -2.4019769400206412 [Eh]
	 SCS Total Energy          =    -553.6467676167845866 [Eh]
	-----------------------------------------------------------

  -Total Gradient:
     Atom            X                  Y                   Z
    ------   -----------------  -----------------  -----------------
       1       -0.003308433933    -0.005951002335    -0.000197268784
       2        0.000040906774    -0.000117978634    -0.000140847395
       3        0.000009145360     0.000119477361     0.000127842572
       4       -0.000026954829     0.000115389958     0.000029995741
       5       -0.004317954369    -0.004214680225    -0.002981608649
       6       -0.000015041686     0.000097355702     0.000131149807
       7        0.000011150424     0.000018660300    -0.000079153334
       8       -0.000032572599    -0.000055951005    -0.000027649412
       9        0.002731368208     0.006819767252    -0.001294035763
      10        0.004895071065     0.003401209157     0.004492175736
      11        0.000010972854    -0.000198020483    -0.000099454889
      12        0.000014988797     0.000015113723     0.000051165465
      13        0.000010176252     0.000040024830    -0.000004432839
      14       -0.000032422529    -0.000035850719    -0.000011299907
      15        0.000033058478    -0.000027578182     0.000008187526
      16        0.000010758497    -0.000029058421    -0.000014946877
      17        0.000029688280     0.000004833604    -0.000057228149
      18       -0.000026817495    -0.000021955613     0.000013001944
      19        0.000012495271     0.000022866447    -0.000004982824
      20       -0.000022061254    -0.000009037903    -0.000000310891
      21       -0.000014206810    -0.000001357612     0.000039652998
      22       -0.000013314757     0.000007772803     0.000020047927

  **** Optimization is complete! (in 15 steps) ****
    Final optimized geometry and variables:
    Molecular point group: c1

    Geometry (in Angstrom), charge = 0, multiplicity = 1:

    C           -1.237014510598     0.867427017500    -0.536471552923
    C           -0.332581086309     0.108798013384     1.586141060832
    C           -2.345532798217     1.333341382878     0.094329478296
    C           -1.416129278796     0.605067247494     2.236666399822
    C            1.623264169957    -1.457587477130     0.048358486228
    C            1.278300421830     0.016124621968    -1.814804691324
    C            2.620418089282    -2.065180516792    -0.643246090503
    C            2.286635415535    -0.610616975747    -2.471871885053
    C           -0.174877268816     0.243539878528     0.177487318631
    C            0.897318111336    -0.352502822732    -0.489276927540
    C           -2.505972068628     1.253432894328     1.533089701467
    N            2.959525880716    -1.640557851293    -1.890649094191
    O           -3.504701531142     1.699041821963     2.117936753510
    H           -1.186893626233     0.925644802194    -1.614675240013
    H            0.460682307277    -0.345027825081     2.164030972034
    H           -3.162709197612     1.763901784752    -0.465276078574
    H           -1.499697286233     0.536541780550     3.311163021854
    H            1.367425939880    -1.858683454614     1.014849383002
    H            0.793672513896     0.840254745860    -2.311604178924
    H            3.163021766912    -2.913991423023    -0.261004305119
    H            2.606394417353    -0.325514436275    -3.460465900632
    H            3.698265168968    -2.101204935679    -2.391736305769

*** Psi4 exiting successfully. Buy a developer a beer!
