                               Psi4 1.1 release

  ==> Input File <==

--------------------------------------------------------------------------

memory 5000 mb

molecule butane {
  symmetry C1
  0 1
  H      1.716   0.451   -8.665
  H      1.625   2.178   -8.417
  H      2.051   1.542   -9.987
  C      2.142   1.395   -8.932
  H      4.169   2.051   -9.210
  H      3.731   1.788   -7.539
  C      3.631   1.416   -8.537
  H      3.665   -0.647   -7.940
  H      4.104   -0.384   -9.610
  C      4.203   -0.012   -8.612
  H      6.088   -0.983   -8.270
  H      5.791   0.381   -7.220
  H      6.230   0.644   -8.890
  C      5.691   0.009   -8.218
  units Angstrom
}

dih_string = "10 7 4 3 270"
set optking fixed_dihedral = $dih_string

optimize('MP2/aug-cc-pvtz')
--------------------------------------------------------------------------

    Molecular point group: c1
  Charge       = 0
  Multiplicity = 1
  Basis Set: AUG-CC-PVTZ
    Blend: AUG-CC-PVTZ
  Basis Set: (AUG-CC-PVTZ AUX)
    Blend: AUG-CC-PVTZ-JKFIT
  @DF-RHF Final Energy:  -157.35001030957491
    Total Energy =                       -157.3500103095749125
  Basis Set: (AUG-CC-PVTZ AUX)
    Blend: AUG-CC-PVTZ-RI
    Molecular point group: c1
  Basis Set: AUG-CC-PVTZ
    Blend: AUG-CC-PVTZ
  Basis Set: (AUG-CC-PVTZ AUX)
    Blend: AUG-CC-PVTZ-JKFIT
  Basis Set: (AUG-CC-PVTZ AUX)
    Blend: AUG-CC-PVTZ-JKFIT
	 Reference Energy          =    -157.3500103095749125 [Eh]
	 Singles Energy            =      -0.0000000000000000 [Eh]
	 Same-Spin Energy          =      -0.1654333861990047 [Eh]
	 Opposite-Spin Energy      =      -0.6391104995425410 [Eh]
	 Correlation Energy        =      -0.8045438857415457 [Eh]
	 Total Energy              =    -158.1545541953164502 [Eh]
	 SCS Total Energy          =    -158.1720873710922888 [Eh]
  @DF-RHF Final Energy:  -157.35277336336802
    Total Energy =                       -157.3527733633680157
  @DF-RHF Final Energy:  -157.35364065144068
    Total Energy =                       -157.3536406514406849
  @DF-RHF Final Energy:  -157.35395434993032
    Total Energy =                       -157.3539543499303193
  @DF-RHF Final Energy:  -157.35398094709058
    Total Energy =                       -157.3539809470905766
  Charge       = 0
  Multiplicity = 1
  Basis Set: AUG-CC-PVTZ
    Blend: AUG-CC-PVTZ
  Basis Set: (AUG-CC-PVTZ AUX)
    Blend: AUG-CC-PVTZ-JKFIT

    Orbital Energies (a.u.)
    -----------------------

    Doubly Occupied:

       1A    -11.211477     2A    -11.210799     3A    -11.205925
       4A    -11.205766     5A     -1.073497     6A     -0.981378
       7A     -0.861553     8A     -0.788211     9A     -0.639961
      10A     -0.584742    11A     -0.577719    12A     -0.568549
      13A     -0.513329    14A     -0.495717    15A     -0.470422
      16A     -0.459801    17A     -0.454980

  @DF-RHF Final Energy:  -157.35398767205857

   => Energetics <=

    Nuclear Repulsion Energy =            131.4083200819997614
    One-Electron Energy =                -470.9169657323024580
    Two-Electron Energy =                 182.1546579782441313
    DFT Exchange-Correlation Energy =       0.0000000000000000
    Empirical Dispersion Energy =           0.0000000000000000
    PCM Polarization Energy =               0.0000000000000000
    EFP Energy =                            0.0000000000000000
    Total Energy =                       -157.3539876720585653
  Basis Set: (AUG-CC-PVTZ AUX)
    Blend: AUG-CC-PVTZ-RI
    Molecular point group: c1
  Basis Set: AUG-CC-PVTZ
    Blend: AUG-CC-PVTZ
  Basis Set: (AUG-CC-PVTZ AUX)
    Blend: AUG-CC-PVTZ-JKFIT
  Basis Set: (AUG-CC-PVTZ AUX)
    Blend: AUG-CC-PVTZ-JKFIT
	 Reference Energy          =    -157.3539876720585653 [Eh]
	 Singles Energy            =      -0.0000000000000000 [Eh]
	 Same-Spin Energy          =      -0.1654418540468427 [Eh]
	 Opposite-Spin Energy      =      -0.6395144987685832 [Eh]
	 Correlation Energy        =      -0.8049563528154260 [Eh]
	 Total Energy              =    -158.1589440248739891 [Eh]

	 ================> DF-SCS-MP2 Energies <==================
	-----------------------------------------------------------
	 SCS Same-Spin Scale       =       0.3333333333333333 [-]
	 SCS Opposite-Spin Scale   =       1.2000000000000000 [-]
	 SCS Same-Spin Energy      =      -0.0551472846822809 [Eh]
	 SCS Opposite-Spin Energy  =      -0.7674173985222998 [Eh]
	 SCS Correlation Energy    =      -0.8225646832045808 [Eh]
	 SCS Total Energy          =    -158.1765523552631407 [Eh]
	-----------------------------------------------------------

  -Total Gradient:
     Atom            X                  Y                   Z
    ------   -----------------  -----------------  -----------------
       1       -0.000021324087    -0.000018611643    -0.000002184895
       2       -0.000003371710    -0.000019402958    -0.000003617715
       3       -0.000116153744     0.003354509831     0.000500859246
       4       -0.000075492149    -0.004343461767     0.000313228786
       5        0.000024528530     0.000010669071    -0.000010595042
       6       -0.000002751439     0.000011982650    -0.000025985569
       7        0.000839556807     0.001403919598    -0.003113604805
       8        0.000015192561    -0.000006560837    -0.000015669893
       9       -0.000015314052     0.000005202592    -0.000010708429
      10       -0.000635124007    -0.000379423561     0.002334924218
      11        0.000013217972    -0.000004150951     0.000007781797
      12        0.000014984944     0.000004306062     0.000002587947
      13       -0.000008134932     0.000003511589    -0.000008615245
      14       -0.000029814697    -0.000022489679     0.000031599601

  **** Optimization is complete! (in 6 steps) ****
    Final optimized geometry and variables:
    Molecular point group: c1

    Geometry (in Angstrom), charge = 0, multiplicity = 1:

    H           -2.263080035290    -0.244773056590    -0.103098842764
    H           -2.324223658175     1.497498866930     0.118106190623
    H           -1.890490183329     0.846937335172    -1.440917706025
    C           -1.779575820743     0.692397127998    -0.370236797461
    H            0.257222668573     1.370617500572    -0.594026546499
    H           -0.212468842510     1.062190946347     1.058270123562
    C           -0.311437215562     0.688389774537     0.038240075661
    H           -0.237904303935    -1.350906678386     0.658384195309
    H            0.181515882745    -1.106659959461    -1.021142689722
    C            0.310269445228    -0.694470407157    -0.018598764983
    H            2.206967245796    -1.689328905502     0.320972741733
    H            1.924642189437    -0.291837579789     1.353131104654
    H            2.348193190263    -0.063208459110    -0.337596535215
    C            1.781552021826    -0.688880571085     0.349580771952

*** Psi4 exiting successfully. Buy a developer a beer!
