                              Psi4 1.0.0 Driver

  ==> Input File <==

--------------------------------------------------------------------------

memory 1000 mb

molecule butane {
  symmetry C1
  0 1
  H      1.604   0.760   -8.260
  H      1.745   2.388   -8.880
  H      2.043   1.024   -9.930
  C      2.142   1.395   -8.932
  H      4.169   2.051   -9.210
  H      3.731   1.788   -7.539
  C      3.631   1.416   -8.537
  H      3.788   -0.604   -7.823
  H      3.950   -0.448   -9.555
  C      4.203   -0.012   -8.612
  H      6.132   -0.953   -8.517
  H      5.988   0.476   -7.521
  H      6.150   0.631   -9.254
  C      5.734   0.039   -8.465
  units Angstrom
}

dih_string = "4 7 10 14 170"
set optking fixed_dihedral = $dih_string

optimize('B3LYP/cc-PVDZ')
--------------------------------------------------------------------------

    Molecular point group: c1
  Charge       = 0
  Multiplicity = 1
  Basis Set: CC-PVDZ
   => B3LYP Composite Functional <=
  Basis Set:
  @DF-RKS Final Energy:  -158.44910423466760
    Total Energy =                       -158.4491042346676011
    Molecular point group: c1
  Basis Set: CC-PVDZ
  Basis Set:
   => B3LYP Composite Functional <=
  Basis Set: CC-PVDZ
   => B3LYP Composite Functional <=
  Basis Set:
  @DF-RKS Final Energy:  -158.45491615800938
    Total Energy =                       -158.4549161580093823
  Basis Set: CC-PVDZ
  Basis Set:
   => B3LYP Composite Functional <=
  Basis Set: CC-PVDZ
   => B3LYP Composite Functional <=
  Basis Set:
  @DF-RKS Final Energy:  -158.45758957607120
    Total Energy =                       -158.4575895760712001
  Basis Set: CC-PVDZ
  Basis Set:
   => B3LYP Composite Functional <=
  Basis Set:
  @DF-RKS Final Energy:  -158.45838720241133
    Total Energy =                       -158.4583872024113305
  Basis Set: CC-PVDZ
  Basis Set:
   => B3LYP Composite Functional <=
  Basis Set: CC-PVDZ
   => B3LYP Composite Functional <=
  Basis Set:
  @DF-RKS Final Energy:  -158.45855767621183
    Total Energy =                       -158.4585576762118251
  Basis Set: CC-PVDZ
  Basis Set:
   => B3LYP Composite Functional <=
  Charge       = 0
  Multiplicity = 1
  Basis Set: CC-PVDZ
   => B3LYP Composite Functional <=
  Basis Set:

    Orbital Energies (a.u.)
    -----------------------

    Doubly Occupied:

       1A    -10.180272     2A    -10.180105     3A    -10.175959
       4A    -10.175952     5A     -0.790561     6A     -0.720621
       7A     -0.627082     8A     -0.571986     9A     -0.463308
      10A     -0.422370    11A     -0.416883    12A     -0.405871
      13A     -0.365452    14A     -0.347632    15A     -0.331727
      16A     -0.320651    17A     -0.319267

  @DF-RKS Final Energy:  -158.45856357225523

   => Energetics <=

    Nuclear Repulsion Energy =            129.9254235940697981
    One-Electron Energy =                -468.3385709387976021
    Two-Electron Energy =                 200.5379068420118642
    DFT Exchange-Correlation Energy =     -20.5833230695393006
    Empirical Dispersion Energy =           0.0000000000000000
    PCM Polarization Energy =               0.0000000000000000
    EFP Energy =                            0.0000000000000000
    Total Energy =                       -158.4585635722552297
    Molecular point group: c1
  Basis Set: CC-PVDZ
  Basis Set:
   => B3LYP Composite Functional <=

  -Total Gradient:
     Atom            X                  Y                   Z
    ------   -----------------  -----------------  -----------------
       1       -0.000036420717    -0.000025205374     0.000023642926
       2       -0.000034289302     0.000052442329    -0.000001938222
       3       -0.000019122063    -0.000008769924    -0.000047632877
       4        0.000415022571     0.000187774787    -0.001301631307
       5        0.000005983265    -0.000033416352     0.000007976879
       6       -0.000005369601    -0.000021718048     0.000032116331
       7       -0.000433229199    -0.000159956391     0.001272568862
       8       -0.000006231520     0.000013663292     0.000035740938
       9       -0.000010056115     0.000029628601     0.000011072862
      10       -0.000030969848    -0.000161054857     0.001345562401
      11        0.000034467968    -0.000052978817    -0.000002730214
      12        0.000023379563     0.000016248061     0.000037254295
      13        0.000031180605     0.000016919768    -0.000032625704
      14        0.000063974370     0.000145254214    -0.001369868798

  **** Optimization is complete! (in 6 steps) ****
    Final optimized geometry and variables:
    Molecular point group: c1

    Geometry (in Angstrom), charge = 0, multiplicity = 1:

    H           -2.402575894989     0.031647819642     0.370642064222
    H           -2.249700526571     1.698871136463    -0.231724623021
    H           -1.958343383946     0.325201765777    -1.325998441636
    C           -1.814399523249     0.688159347951    -0.293890739398
    H            0.216987919906     1.365498938847    -0.590227986132
    H           -0.205789590746     1.109843926058     1.103808572993
    C           -0.332865624601     0.687794694897     0.089671903106
    H           -0.132791625467    -1.345749365202     0.814758276377
    H            0.051683581263    -1.178316260957    -0.932183344051
    C            0.311324827705    -0.702804458193     0.032373058498
    H            2.264403722559    -1.688625543517     0.148407507755
    H            2.135808163794    -0.217491829450     1.140923914420
    H            2.302557939478    -0.085378600000    -0.624533752662
    C            1.834072458779    -0.674451525589     0.182438674952

*** Psi4 exiting successfully. Buy a developer a beer!
