                               Psi4 1.1 release

  ==> Input File <==

--------------------------------------------------------------------------

memory 5 Gb

molecule phepyrF {
  symmetry C1
  0 1
  C      1.885   -1.036   -0.112
  C      0.807   -0.463   0.561
  C      2.921   -1.631   0.608
  C      0.764   -0.484   1.955
  C      4.058   -3.655   2.804
  C      4.893   -1.480   3.402
  C      5.108   -4.197   3.527
  C      5.905   -2.120   4.098
  C      2.878   -1.652   2.002
  C      3.955   -2.270   2.745
  C      1.800   -1.079   2.676
  N      6.038   -3.463   4.178
  F      1.744   -1.089   4.016
  H      1.918   -1.020   -1.198
  H      0.000   -0.000   -0.000
  H      3.755   -2.073   0.068
  H      -0.076   -0.038   2.480
  H      3.346   -4.304   2.304
  H      4.844   -0.396   3.378
  H      5.234   -5.273   3.603
  H      6.661   -1.549   4.628
  units Angstrom
}

dih_string = "3 9 10 5 285"
set optking fixed_dihedral = $dih_string

optimize('MP2/aug-cc-PVTZ')
--------------------------------------------------------------------------

    Molecular point group: c1
  Charge       = 0
  Multiplicity = 1
  Basis Set: AUG-CC-PVTZ
    Blend: AUG-CC-PVTZ
  Basis Set: (AUG-CC-PVTZ AUX)
    Blend: AUG-CC-PVTZ-JKFIT
  @DF-RHF Final Energy:  -575.28285903391770
    Total Energy =                       -575.2828590339177026
  Basis Set: (AUG-CC-PVTZ AUX)
    Blend: AUG-CC-PVTZ-RI
    Molecular point group: c1
  Basis Set: AUG-CC-PVTZ
    Blend: AUG-CC-PVTZ
  Basis Set: (AUG-CC-PVTZ AUX)
    Blend: AUG-CC-PVTZ-JKFIT
  Basis Set: (AUG-CC-PVTZ AUX)
    Blend: AUG-CC-PVTZ-JKFIT
	 Reference Energy          =    -575.2828590339177026 [Eh]
	 Singles Energy            =      -0.0000000000000001 [Eh]
	 Same-Spin Energy          =      -0.6075400695381209 [Eh]
	 Opposite-Spin Energy      =      -1.8318741816923658 [Eh]
	 Correlation Energy        =      -2.4394142512304868 [Eh]
	 Total Energy              =    -577.7222732851481624 [Eh]
	 SCS Total Energy          =    -577.6836214084612493 [Eh]
  @DF-RHF Final Energy:  -575.28855743701001
    Total Energy =                       -575.2885574370100130
  @DF-RHF Final Energy:  -575.28956642868411
    Total Energy =                       -575.2895664286841111
  @DF-RHF Final Energy:  -575.28947029986489
    Total Energy =                       -575.2894702998648881
  @DF-RHF Final Energy:  -575.28937132269164
    Total Energy =                       -575.2893713226916361
  Charge       = 0
  Multiplicity = 1
  Basis Set: AUG-CC-PVTZ
    Blend: AUG-CC-PVTZ
  Basis Set: (AUG-CC-PVTZ AUX)
    Blend: AUG-CC-PVTZ-JKFIT

    Orbital Energies (a.u.)
    -----------------------

    Doubly Occupied:

       1A    -26.315615     2A    -15.565005     3A    -11.336330
       4A    -11.274080     5A    -11.273555     6A    -11.268562
       7A    -11.260510     8A    -11.256020     9A    -11.255558
      10A    -11.250515    11A    -11.246804    12A    -11.240496
      13A    -11.239731    14A     -1.634380    15A     -1.261252
      16A     -1.185578    17A     -1.115067    18A     -1.037880
      19A     -1.035981    20A     -1.028692    21A     -0.891688
      22A     -0.865460    23A     -0.855300    24A     -0.825615
      25A     -0.755205    26A     -0.723466    27A     -0.711148
      28A     -0.702451    29A     -0.671247    30A     -0.669203
      31A     -0.652416    32A     -0.626042    33A     -0.612666
      34A     -0.599259    35A     -0.591758    36A     -0.549618
      37A     -0.535634    38A     -0.529744    39A     -0.517617
      40A     -0.510740    41A     -0.419619    42A     -0.387798
      43A     -0.357034    44A     -0.349225    45A     -0.346558

  @DF-RHF Final Energy:  -575.28938449056818

   => Energetics <=

    Nuclear Repulsion Energy =            715.2546138030799057
    One-Electron Energy =               -2202.4117504436730997
    Two-Electron Energy =                 911.8677521500251260
    DFT Exchange-Correlation Energy =       0.0000000000000000
    Empirical Dispersion Energy =           0.0000000000000000
    PCM Polarization Energy =               0.0000000000000000
    EFP Energy =                            0.0000000000000000
    Total Energy =                       -575.2893844905681817
  Basis Set: (AUG-CC-PVTZ AUX)
    Blend: AUG-CC-PVTZ-RI
    Molecular point group: c1
  Basis Set: AUG-CC-PVTZ
    Blend: AUG-CC-PVTZ
  Basis Set: (AUG-CC-PVTZ AUX)
    Blend: AUG-CC-PVTZ-JKFIT
  Basis Set: (AUG-CC-PVTZ AUX)
    Blend: AUG-CC-PVTZ-JKFIT
	 Reference Energy          =    -575.2893844905681817 [Eh]
	 Singles Energy            =      -0.0000000000000002 [Eh]
	 Same-Spin Energy          =      -0.6066754827123512 [Eh]
	 Opposite-Spin Energy      =      -1.8293847001852703 [Eh]
	 Correlation Energy        =      -2.4360601828976214 [Eh]
	 Total Energy              =    -577.7254446734658586 [Eh]

	 ================> DF-SCS-MP2 Energies <==================
	-----------------------------------------------------------
	 SCS Same-Spin Scale       =       0.3333333333333333 [-]
	 SCS Opposite-Spin Scale   =       1.2000000000000000 [-]
	 SCS Same-Spin Energy      =      -0.2022251609041170 [Eh]
	 SCS Opposite-Spin Energy  =      -2.1952616402223244 [Eh]
	 SCS Correlation Energy    =      -2.3974868011264414 [Eh]
	 SCS Total Energy          =    -577.6868712916946151 [Eh]
	-----------------------------------------------------------

  -Total Gradient:
     Atom            X                  Y                   Z
    ------   -----------------  -----------------  -----------------
       1       -0.000002773908    -0.000005646187     0.000044060193
       2        0.000017916538    -0.000016397587    -0.000017057668
       3        0.000796153853     0.001547771573    -0.000044183375
       4       -0.000024454524    -0.000001912508    -0.000019938556
       5       -0.001006412671    -0.000093065463     0.001410098588
       6        0.000065986992     0.000019112944     0.000022933285
       7       -0.000006840849    -0.000008318499     0.000049353198
       8        0.000045705897    -0.000026467105    -0.000027378591
       9       -0.001690808189    -0.002371804145     0.000843542454
      10        0.001852817386     0.000896312932    -0.002206681140
      11        0.000048740454     0.000026220744    -0.000190425377
      12       -0.000018159510     0.000018875516    -0.000017490719
      13       -0.000073976845    -0.000000300551     0.000135018169
      14        0.000003407590     0.000002687232    -0.000012514241
      15       -0.000007151111     0.000008260074     0.000000004255
      16        0.000023866838    -0.000009473128     0.000018053753
      17        0.000006411908    -0.000003323514     0.000025026315
      18       -0.000007030313     0.000001783281    -0.000001537987
      19       -0.000000360087     0.000003366578     0.000004531951
      20       -0.000011530501    -0.000019727600    -0.000027814016
      21       -0.000011508956     0.000032045420     0.000012399518

  **** Optimization is complete! (in 6 steps) ****
    Final optimized geometry and variables:
    Molecular point group: c1

    Geometry (in Angstrom), charge = 0, multiplicity = 1:

    C           -1.405024595180     0.845470324574    -2.667910603138
    C           -2.463484080308     1.431590081892    -1.987651431859
    C           -0.377128249671     0.242713058976    -1.958514456415
    C           -2.493308390005     1.417263724299    -0.600773047004
    C            0.840842287199    -1.786140362990     0.270851244353
    C            1.632846083559     0.369064090064     0.880076078618
    C            1.890132769007    -2.323481001490     1.001459787166
    C            2.647279525013    -0.258698120750     1.585944417215
    C           -0.387913362595     0.208954046296    -0.565951853969
    C            0.706444086605    -0.405921429503     0.194113156806
    C           -1.456733811177     0.812154263003     0.080049262074
    N            2.789470247563    -1.584536429777     1.654276293722
    F           -1.487793758841     0.799246917749     1.425055400497
    H           -1.378322417669     0.861911088826    -3.745977077983
    H           -3.266675141408     1.902930324912    -2.532253255251
    H            0.454160976669    -0.210594620891    -2.477611287804
    H           -3.301231219932     1.863440739607    -0.044115278995
    H            0.136356115546    -2.431567912328    -0.231998760349
    H            1.564295343916     1.446257466980     0.860755150020
    H            2.011991100069    -3.395384453697     1.069321315651
    H            3.379673596745     0.328489038853     2.121807290379

*** Psi4 exiting successfully. Buy a developer a beer!
