                               Psi4 1.1 release

  ==> Input File <==

--------------------------------------------------------------------------

memory 5 Gb

molecule phepyrFOH_cation {
  symmetry C1
  1 1
  C      1.885   -1.036   -0.112
  C      0.807   -0.463   0.561
  C      3.994   -3.565   -0.467
  C      5.158   -1.457   -0.399
  C      1.800   -1.079   2.676
  C      5.079   -4.108   -1.139
  C      6.214   -2.053   -1.074
  C      2.921   -1.631   0.608
  C      4.038   -2.225   -0.095
  C      0.764   -0.484   1.955
  C      2.878   -1.652   2.002
  N      6.145   -3.346   -1.420
  O      -0.289   0.076   2.612
  F      3.866   -2.220   2.709
  H      1.904   -1.012   -1.199
  H      0.002   -0.002   -0.006
  H      3.133   -4.188   -0.242
  H      5.220   -0.409   -0.121
  H      1.772   -1.099   3.762
  H      5.132   -5.137   -1.467
  H      7.121   -1.535   -1.351
  H      6.932   -3.765   -1.914
  H      -0.175   -0.018   3.571
  units Angstrom
}

dih_string = "1 8 9 3 270"
set optking fixed_dihedral = $dih_string

optimize('MP2/aug-cc-PVTZ')
--------------------------------------------------------------------------

    Molecular point group: c1
  Charge       = 1
  Multiplicity = 1
  Basis Set: AUG-CC-PVTZ
    Blend: AUG-CC-PVTZ
  Basis Set: (AUG-CC-PVTZ AUX)
    Blend: AUG-CC-PVTZ-JKFIT
  @DF-RHF Final Energy:  -650.55590380266688
    Total Energy =                       -650.5559038026667622
  Basis Set: (AUG-CC-PVTZ AUX)
    Blend: AUG-CC-PVTZ-RI
    Molecular point group: c1
  Basis Set: AUG-CC-PVTZ
    Blend: AUG-CC-PVTZ
  Basis Set: (AUG-CC-PVTZ AUX)
    Blend: AUG-CC-PVTZ-JKFIT
  Basis Set: (AUG-CC-PVTZ AUX)
    Blend: AUG-CC-PVTZ-JKFIT
	 Reference Energy          =    -650.5559038026668759 [Eh]
	 Singles Energy            =      -0.0000000000000001 [Eh]
	 Same-Spin Energy          =      -0.6687484182211401 [Eh]
	 Opposite-Spin Energy      =      -2.0140870258264578 [Eh]
	 Correlation Energy        =      -2.6828354440475977 [Eh]
	 Total Energy              =    -653.2387392467144309 [Eh]
	 SCS Total Energy          =    -653.1957243730656728 [Eh]
  @DF-RHF Final Energy:  -650.56145470082947
    Total Energy =                       -650.5614547008294721
  @DF-RHF Final Energy:  -650.56255282324025
    Total Energy =                       -650.5625528232403667
  @DF-RHF Final Energy:  -650.56241490101820
    Total Energy =                       -650.5624149010182009
  Charge       = 1
  Multiplicity = 1
  Basis Set: AUG-CC-PVTZ
    Blend: AUG-CC-PVTZ
  Basis Set: (AUG-CC-PVTZ AUX)
    Blend: AUG-CC-PVTZ-JKFIT

    Orbital Energies (a.u.)
    -----------------------

    Doubly Occupied:

       1A    -26.435891     2A    -20.703159     3A    -15.846531
       4A    -11.490698     5A    -11.490662     6A    -11.460372
       7A    -11.456181     8A    -11.431759     9A    -11.421242
      10A    -11.421211    11A    -11.377215    12A    -11.373548
      13A    -11.354829    14A    -11.344924    15A     -1.754108
      16A     -1.525644    17A     -1.521482    18A     -1.322951
      19A     -1.273928    20A     -1.248718    21A     -1.164368
      22A     -1.150989    23A     -1.072849    24A     -1.065536
      25A     -0.991245    26A     -0.972583    27A     -0.961591
      28A     -0.885693    29A     -0.879289    30A     -0.863017
      31A     -0.852538    32A     -0.823948    33A     -0.820431
      34A     -0.807125    35A     -0.802321    36A     -0.782451
      37A     -0.756353    38A     -0.746700    39A     -0.728810
      40A     -0.716229    41A     -0.707205    42A     -0.687737
      43A     -0.657765    44A     -0.640815    45A     -0.609866
      46A     -0.581776    47A     -0.544824    48A     -0.470475
      49A     -0.444329

  @DF-RHF Final Energy:  -650.56233332231682

   => Energetics <=

    Nuclear Repulsion Energy =            830.4150785333156364
    One-Electron Energy =               -2521.0670037740846965
    Two-Electron Energy =                1040.0895919184522427
    DFT Exchange-Correlation Energy =       0.0000000000000000
    Empirical Dispersion Energy =           0.0000000000000000
    PCM Polarization Energy =               0.0000000000000000
    EFP Energy =                            0.0000000000000000
    Total Energy =                       -650.5623333223168174
  Basis Set: (AUG-CC-PVTZ AUX)
    Blend: AUG-CC-PVTZ-RI
    Molecular point group: c1
  Basis Set: AUG-CC-PVTZ
    Blend: AUG-CC-PVTZ
  Basis Set: (AUG-CC-PVTZ AUX)
    Blend: AUG-CC-PVTZ-JKFIT
  Basis Set: (AUG-CC-PVTZ AUX)
    Blend: AUG-CC-PVTZ-JKFIT
	 Reference Energy          =    -650.5623333223168174 [Eh]
	 Singles Energy            =      -0.0000000000000000 [Eh]
	 Same-Spin Energy          =      -0.6680157464526855 [Eh]
	 Opposite-Spin Energy      =      -2.0119641226200318 [Eh]
	 Correlation Energy        =      -2.6799798690727172 [Eh]
	 Total Energy              =    -653.2423131913894849 [Eh]

	 ================> DF-SCS-MP2 Energies <==================
	-----------------------------------------------------------
	 SCS Same-Spin Scale       =       0.3333333333333333 [-]
	 SCS Opposite-Spin Scale   =       1.2000000000000000 [-]
	 SCS Same-Spin Energy      =      -0.2226719154842285 [Eh]
	 SCS Opposite-Spin Energy  =      -2.4143569471440380 [Eh]
	 SCS Correlation Energy    =      -2.6370288626282665 [Eh]
	 SCS Total Energy          =    -653.1993621849451301 [Eh]
	-----------------------------------------------------------

  -Total Gradient:
     Atom            X                  Y                   Z
    ------   -----------------  -----------------  -----------------
       1       -0.000009990566     0.000056368015    -0.000002642905
       2        0.000041946212    -0.000011666165    -0.000094811866
       3        0.000066017784    -0.000019602646     0.000055231408
       4        0.000009123779    -0.000023764631    -0.000040841789
       5       -0.000034319673     0.000019807593    -0.000017978378
       6       -0.000041725879     0.000003469703    -0.000071896033
       7       -0.000003014205     0.000019799580    -0.000045879098
       8        0.000117997783    -0.000135188269     0.000021412167
       9       -0.000162725840     0.000127259534    -0.000036366968
      10       -0.000006942784     0.000003875360     0.000075527422
      11       -0.000022985589    -0.000035648411     0.000025049522
      12        0.000013954271    -0.000002065922     0.000058757071
      13        0.000030073758    -0.000017054583    -0.000007994738
      14        0.000006956910     0.000005618890    -0.000011495808
      15        0.000015851779    -0.000002938266    -0.000032234301
      16       -0.000019056760     0.000011578009     0.000017323151
      17       -0.000021816146    -0.000020886931     0.000033732563
      18        0.000005558679     0.000026284119     0.000037880146
      19       -0.000000438394     0.000003680333     0.000006866898
      20        0.000005602031    -0.000005728548     0.000011561212
      21        0.000006194932    -0.000000652292     0.000003638868
      22        0.000025592638    -0.000013622067    -0.000008502186
      23       -0.000021854712     0.000011077610     0.000023663651

  **** Optimization is complete! (in 5 steps) ****
    Final optimized geometry and variables:
    Molecular point group: c1

    Geometry (in Angstrom), charge = 1, multiplicity = 1:

    C           -1.384933894808     0.783764559340    -0.767041621520
    C           -2.438971059079     1.343964372708    -0.073165100769
    C            0.788977332393    -1.766165062631    -1.156784627257
    C            1.947142050545     0.326110666130    -1.082546004304
    C           -1.407368787415     0.715389482479     2.013529175404
    C            1.870653754526    -2.324553202090    -1.800212599934
    C            3.014099808391    -0.259172890091    -1.726627108555
    C           -0.326508589175     0.181394170095    -0.088606303165
    C            0.810445720161    -0.423228693473    -0.785440185173
    C           -2.453236797801     1.311262024605     1.318639817716
    C           -0.369765241245     0.165333532203     1.294679427627
    N            2.939073232566    -1.556275184982    -2.060149275214
    O           -3.513026615343     1.876826382670     1.928936089570
    F            0.650769529706    -0.415010659412     1.953309826096
    H           -1.378738072686     0.812013332891    -1.846419822828
    H           -3.260373447936     1.811489519432    -0.591672888193
    H           -0.071534070758    -2.378619367097    -0.939330430884
    H            2.001776944560     1.367138226686    -0.806615240249
    H           -1.386846870866     0.672758131610     3.091504055534
    H            1.922253948165    -3.354270763498    -2.112161783679
    H            3.922637516950     0.259257452321    -1.983703242035
    H            3.730786268940    -1.977802318310    -2.531238225174
    H           -3.431484323189     1.804046711074     2.885850679033

*** Psi4 exiting successfully. Buy a developer a beer!
