                               Psi4 1.1 release

  ==> Input File <==

--------------------------------------------------------------------------

molecule phepyr {
  symmetry C1
  0 1
  C      1.885   -1.036   -0.112
  C      0.807   -0.463   0.561
  C      2.921   -1.631   0.608
  C      0.764   -0.484   1.955
  C      2.878   -1.652   2.002
  C      2.067   -2.266   4.812
  C      1.401   0.045   4.826
  C      2.011   -2.235   6.196
  C      1.374   -0.027   6.210
  C      1.800   -1.079   2.676
  C      1.755   -1.100   4.122
  N      1.671   -1.142   6.915
  H      1.917   -1.021   -1.198
  H      -0.001   -0.002   0.000
  H      3.760   -2.079   0.084
  H      -0.084   -0.033   2.466
  H      3.693   -2.120   2.550
  H      2.349   -3.179   4.298
  H      1.151   0.972   4.321
  H      2.247   -3.117   6.782
  H      1.103   0.838   6.805
  units Angstrom
}

dih_string = "4 10 11 6 135"
set optking fixed_dihedral = $dih_string

optimize('MP2/aug-cc-PVTZ')
--------------------------------------------------------------------------

    Molecular point group: c1
  Charge       = 0
  Multiplicity = 1
  Basis Set: AUG-CC-PVTZ
    Blend: AUG-CC-PVTZ
  Basis Set: (AUG-CC-PVTZ AUX)
    Blend: AUG-CC-PVTZ-JKFIT
  @DF-RHF Final Energy:  -476.39717689467415
    Total Energy =                       -476.3971768946742031
  Basis Set: (AUG-CC-PVTZ AUX)
    Blend: AUG-CC-PVTZ-RI
    Molecular point group: c1
  Basis Set: AUG-CC-PVTZ
    Blend: AUG-CC-PVTZ
  Basis Set: (AUG-CC-PVTZ AUX)
    Blend: AUG-CC-PVTZ-JKFIT
  Basis Set: (AUG-CC-PVTZ AUX)
    Blend: AUG-CC-PVTZ-JKFIT
	 Reference Energy          =    -476.3971768946741463 [Eh]
	 Singles Energy            =      -0.0000000000000000 [Eh]
	 Same-Spin Energy          =      -0.5349241981757326 [Eh]
	 Opposite-Spin Energy      =      -1.6428795977130286 [Eh]
	 Correlation Energy        =      -2.1778037958887611 [Eh]
	 Total Energy              =    -478.5749806905628816 [Eh]
	 SCS Total Energy          =    -478.5469404779883575 [Eh]
  @DF-RHF Final Energy:  -476.40191384202956
    Total Energy =                       -476.4019138420295576
  @DF-RHF Final Energy:  -476.40231423768466
    Total Energy =                       -476.4023142376846636
  @DF-RHF Final Energy:  -476.40227539161287
    Total Energy =                       -476.4022753916128750
  Charge       = 0
  Multiplicity = 1
  Basis Set: AUG-CC-PVTZ
    Blend: AUG-CC-PVTZ
  Basis Set: (AUG-CC-PVTZ AUX)
    Blend: AUG-CC-PVTZ-JKFIT

    Orbital Energies (a.u.)
    -----------------------

    Doubly Occupied:

       1A    -15.562175     2A    -11.272439     3A    -11.272422
       4A    -11.264984     5A    -11.252732     6A    -11.244287
       7A    -11.244177     8A    -11.243313     9A    -11.242764
      10A    -11.241898    11A    -11.237254    12A    -11.237155
      13A     -1.259162    14A     -1.175723    15A     -1.108288
      16A     -1.036761    17A     -1.026431    18A     -1.018916
      19A     -0.881267    20A     -0.866493    21A     -0.831845
      22A     -0.808682    23A     -0.733908    24A     -0.686405
      25A     -0.672951    26A     -0.660028    27A     -0.633045
      28A     -0.630539    29A     -0.602238    30A     -0.594098
      31A     -0.583316    32A     -0.546001    33A     -0.525826
      34A     -0.512798    35A     -0.510676    36A     -0.498954
      37A     -0.418169    38A     -0.400340    39A     -0.349467
      40A     -0.348111    41A     -0.327441

  @DF-RHF Final Energy:  -476.40226017289740

   => Energetics <=

    Nuclear Repulsion Energy =            606.3235790191847627
    One-Electron Energy =               -1846.3247196657885070
    Two-Electron Energy =                 763.5988804737063447
    DFT Exchange-Correlation Energy =       0.0000000000000000
    Empirical Dispersion Energy =           0.0000000000000000
    PCM Polarization Energy =               0.0000000000000000
    EFP Energy =                            0.0000000000000000
    Total Energy =                       -476.4022601728973996
  Basis Set: (AUG-CC-PVTZ AUX)
    Blend: AUG-CC-PVTZ-RI
    Molecular point group: c1
  Basis Set: AUG-CC-PVTZ
    Blend: AUG-CC-PVTZ
  Basis Set: (AUG-CC-PVTZ AUX)
    Blend: AUG-CC-PVTZ-JKFIT
  Basis Set: (AUG-CC-PVTZ AUX)
    Blend: AUG-CC-PVTZ-JKFIT
	 Reference Energy          =    -476.4022601728973996 [Eh]
	 Singles Energy            =      -0.0000000000000001 [Eh]
	 Same-Spin Energy          =      -0.5341750996015473 [Eh]
	 Opposite-Spin Energy      =      -1.6408123557360681 [Eh]
	 Correlation Energy        =      -2.1749874553376154 [Eh]
	 Total Energy              =    -478.5772476282349999 [Eh]

	 ================> DF-SCS-MP2 Energies <==================
	-----------------------------------------------------------
	 SCS Same-Spin Scale       =       0.3333333333333333 [-]
	 SCS Opposite-Spin Scale   =       1.2000000000000000 [-]
	 SCS Same-Spin Energy      =      -0.1780583665338491 [Eh]
	 SCS Opposite-Spin Energy  =      -1.9689748268832816 [Eh]
	 SCS Correlation Energy    =      -2.1470331934171307 [Eh]
	 SCS Total Energy          =    -478.5492933663145436 [Eh]
	-----------------------------------------------------------

  -Total Gradient:
     Atom            X                  Y                   Z
    ------   -----------------  -----------------  -----------------
       1       -0.000008120341    -0.000010812793    -0.000001821639
       2        0.000013990438    -0.000016626618    -0.000014721600
       3       -0.000008264437     0.000031221079    -0.000015666185
       4       -0.000720543803    -0.001296129807    -0.000033430711
       5        0.000042782671     0.000007287639     0.000019979439
       6       -0.001487838167    -0.000414610977    -0.000048000151
       7        0.000058911195     0.000030722867    -0.000005152234
       8        0.000099777024     0.000118913620     0.000078064440
       9       -0.000107628325    -0.000129120871     0.000057480298
      10        0.000294561854     0.001730068563     0.000049261273
      11        0.001814556885    -0.000051614627     0.000030668399
      12       -0.000008200241    -0.000007260776    -0.000040695268
      13        0.000001737148     0.000005527914    -0.000012994847
      14       -0.000012746506     0.000016864804    -0.000003283651
      15        0.000008348779    -0.000030089051    -0.000003790886
      16       -0.000001698056     0.000015408705     0.000010510465
      17        0.000000402092    -0.000006019764     0.000012926408
      18        0.000010336795    -0.000011589624    -0.000033093970
      19        0.000001942786     0.000009104204    -0.000036151449
      20       -0.000035326724     0.000006784274    -0.000008592844
      21        0.000043018930     0.000001971238    -0.000001495296

  **** Optimization is complete! (in 5 steps) ****
    Final optimized geometry and variables:
    Molecular point group: c1

    Geometry (in Angstrom), charge = 0, multiplicity = 1:

    C            0.097270750068     0.039894402845    -3.545885932209
    C           -0.960814153295     0.630973717718    -2.868222569137
    C            1.124807467507    -0.561014000610    -2.830804244037
    C           -0.989286000330     0.623708500499    -1.481836558036
    C            1.094516117475    -0.568891491995    -1.444510325756
    C            0.307146010224    -1.150294622508     1.422840779935
    C           -0.382472630092     1.118839606446     1.444721631224
    C            0.235272177118    -1.133868112824     2.806801500748
    C           -0.427405225032     1.040455874879     2.827632755979
    C            0.040365600112     0.028191364266    -0.754789197643
    C           -0.001877741469     0.002159751553     0.707111055953
    N           -0.125163916631    -0.062304064383     3.516737178224
    H            0.119991085353     0.045790011656    -4.624770580266
    H           -1.767314014838     1.089521353993    -3.419653141362
    H            1.951499527912    -1.018121429276    -3.352754351862
    H           -1.823194465601     1.064059888830    -0.955502814129
    H            1.902637905425    -1.020468872708    -0.888221907691
    H            0.584242744313    -2.056434457640     0.905326308633
    H           -0.621931864434     2.046314492321     0.946477137872
    H            0.468928442250    -2.025060249215     3.372471483387
    H           -0.713243388725     1.904750305267     3.410830650048

*** Psi4 exiting successfully. Buy a developer a beer!
