                               Psi4 1.1 release

  ==> Input File <==

--------------------------------------------------------------------------

memory 5 Gb

molecule phepyrOH_neutral {
  symmetry C1
  0 1
  C      1.885   -1.036   -0.112
  C      2.878   -1.652   2.002
  C      0.807   -0.463   0.561
  C      1.800   -1.079   2.676
  C      3.862   -2.773   -1.356
  C      5.298   -2.250   0.501
  C      4.965   -3.329   -1.983
  C      6.337   -2.829   -0.209
  C      2.921   -1.631   0.608
  C      4.040   -2.225   -0.090
  C      0.764   -0.484   1.955
  N      6.202   -3.372   -1.440
  O      -0.288   0.076   2.612
  H      1.904   -1.012   -1.199
  H      3.678   -2.112   2.578
  H      0.003   -0.001   -0.006
  H      1.772   -1.098   3.762
  H      2.895   -2.772   -1.850
  H      5.475   -1.833   1.487
  H      4.879   -3.768   -2.972
  H      7.337   -2.875   0.208
  H      -1.116   -0.360   2.354
  units Angstrom
}

dih_string = "3 11 13 22 60"
set optking fixed_dihedral = $dih_string

optimize('MP2/aug-cc-PVTZ')
--------------------------------------------------------------------------

    Molecular point group: c1
  Charge       = 0
  Multiplicity = 1
  Basis Set: AUG-CC-PVTZ
    Blend: AUG-CC-PVTZ
  Basis Set: (AUG-CC-PVTZ AUX)
    Blend: AUG-CC-PVTZ-JKFIT
  @DF-RHF Final Energy:  -551.28249521243538
    Total Energy =                       -551.2824952124353786
  Basis Set: (AUG-CC-PVTZ AUX)
    Blend: AUG-CC-PVTZ-RI
    Molecular point group: c1
  Basis Set: AUG-CC-PVTZ
    Blend: AUG-CC-PVTZ
  Basis Set: (AUG-CC-PVTZ AUX)
    Blend: AUG-CC-PVTZ-JKFIT
  Basis Set: (AUG-CC-PVTZ AUX)
    Blend: AUG-CC-PVTZ-JKFIT
	 Reference Energy          =    -551.2824952124353786 [Eh]
	 Singles Energy            =      -0.0000000000000001 [Eh]
	 Same-Spin Energy          =      -0.6048314648348703 [Eh]
	 Opposite-Spin Energy      =      -1.8304652425399306 [Eh]
	 Correlation Energy        =      -2.4352967073748006 [Eh]
	 Total Energy              =    -553.7177919198102245 [Eh]
	 SCS Total Energy          =    -553.6806639917615485 [Eh]
  @DF-RHF Final Energy:  -551.28834318627105
    Total Energy =                       -551.2883431862710495
  @DF-RHF Final Energy:  -551.28965357707978
    Total Energy =                       -551.2896535770797755
  @DF-RHF Final Energy:  -551.28968990439330
    Total Energy =                       -551.2896899043932990
  @DF-RHF Final Energy:  -551.28979302303355
    Total Energy =                       -551.2897930230335533
  @DF-RHF Final Energy:  -551.28989550364133
    Total Energy =                       -551.2898955036413327
  Charge       = 0
  Multiplicity = 1
  Basis Set: AUG-CC-PVTZ
    Blend: AUG-CC-PVTZ
  Basis Set: (AUG-CC-PVTZ AUX)
    Blend: AUG-CC-PVTZ-JKFIT

    Orbital Energies (a.u.)
    -----------------------

    Doubly Occupied:

       1A    -20.591734     2A    -15.561217     3A    -11.307009
       4A    -11.272286     5A    -11.272162     6A    -11.265845
       7A    -11.251590     8A    -11.250556     9A    -11.249470
      10A    -11.243336    11A    -11.239999    12A    -11.236637
      13A    -11.236440    14A     -1.406373    15A     -1.258632
      16A     -1.175870    17A     -1.106109    18A     -1.039245
      19A     -1.030492    20A     -1.012939    21A     -0.880212
      22A     -0.872133    23A     -0.841449    24A     -0.812512
      25A     -0.746330    26A     -0.724787    27A     -0.683540
      28A     -0.662576    29A     -0.652989    30A     -0.640224
      31A     -0.634437    32A     -0.606421    33A     -0.598313
      34A     -0.593961    35A     -0.550701    36A     -0.545847
      37A     -0.533406    38A     -0.516749    39A     -0.510195
      40A     -0.485997    41A     -0.417920    42A     -0.400016
      43A     -0.355148    44A     -0.348723    45A     -0.317395

  @DF-RHF Final Energy:  -551.28992229008338

   => Energetics <=

    Nuclear Repulsion Energy =            697.4680320530037534
    One-Electron Energy =               -2131.6360564309547954
    Two-Electron Energy =                 882.8781020878676600
    DFT Exchange-Correlation Energy =       0.0000000000000000
    Empirical Dispersion Energy =           0.0000000000000000
    PCM Polarization Energy =               0.0000000000000000
    EFP Energy =                            0.0000000000000000
    Total Energy =                       -551.2899222900833820
  Basis Set: (AUG-CC-PVTZ AUX)
    Blend: AUG-CC-PVTZ-RI
    Molecular point group: c1
  Basis Set: AUG-CC-PVTZ
    Blend: AUG-CC-PVTZ
  Basis Set: (AUG-CC-PVTZ AUX)
    Blend: AUG-CC-PVTZ-JKFIT
  Basis Set: (AUG-CC-PVTZ AUX)
    Blend: AUG-CC-PVTZ-JKFIT
	 Reference Energy          =    -551.2899222900833820 [Eh]
	 Singles Energy            =      -0.0000000000000002 [Eh]
	 Same-Spin Energy          =      -0.6037442674035746 [Eh]
	 Opposite-Spin Energy      =      -1.8280927235773587 [Eh]
	 Correlation Energy        =      -2.4318369909809334 [Eh]
	 Total Energy              =    -553.7217592810643509 [Eh]

	 ================> DF-SCS-MP2 Energies <==================
	-----------------------------------------------------------
	 SCS Same-Spin Scale       =       0.3333333333333333 [-]
	 SCS Opposite-Spin Scale   =       1.2000000000000000 [-]
	 SCS Same-Spin Energy      =      -0.2012480891345249 [Eh]
	 SCS Opposite-Spin Energy  =      -2.1937112682928306 [Eh]
	 SCS Correlation Energy    =      -2.3949593574273553 [Eh]
	 SCS Total Energy          =    -553.6848816475107924 [Eh]
	-----------------------------------------------------------

  -Total Gradient:
     Atom            X                  Y                   Z
    ------   -----------------  -----------------  -----------------
       1       -0.000025486941    -0.000010941929     0.000002932097
       2       -0.000015017215     0.000001687930     0.000014680521
       3        0.001167436676     0.001728920463     0.000200020622
       4        0.000008138491    -0.000002987273    -0.000004983084
       5        0.000015393469     0.000038084650    -0.000010221939
       6       -0.000011456777    -0.000054305649     0.000018178035
       7       -0.000044149158    -0.000114232608     0.000056458798
       8        0.000026284364     0.000152162423    -0.000055278840
       9        0.000065133662    -0.000013984620    -0.000029999286
      10       -0.000051388727     0.000032988187     0.000019496447
      11       -0.001775146685    -0.003064675109     0.000151434488
      12        0.000016500485    -0.000022096386    -0.000006969714
      13        0.000456974100     0.003284780878    -0.002238642994
      14        0.000002541526    -0.000001207729     0.000000680335
      15       -0.000001095590    -0.000001060138    -0.000001281648
      16        0.000003070749     0.000002656881    -0.000005459518
      17        0.000001706371     0.000002782399    -0.000000471558
      18        0.000010074669    -0.000004494412    -0.000008673607
      19        0.000012094819    -0.000007932459    -0.000003527482
      20        0.000002554246     0.000043029956    -0.000026462460
      21       -0.000006412392    -0.000045942595     0.000031152543
      22        0.000142249850    -0.001943232857     0.001896938249

  **** Optimization is complete! (in 7 steps) ****
    Final optimized geometry and variables:
    Molecular point group: c1

    Geometry (in Angstrom), charge = 0, multiplicity = 1:

    C           -1.245263816676     0.759806635957    -0.560884941806
    C           -0.314141059868     0.057748796140     1.530124437606
    C           -2.316410979881     1.332252923117     0.105342310580
    C           -1.392448546816     0.610929356789     2.200841073897
    C            0.757199118458    -1.090197749612    -1.805972104046
    C            2.193452371733    -0.455603789265    -0.031566870190
    C            1.861270337019    -1.638230030555    -2.438762652899
    C            3.238308555833    -1.030340836200    -0.737085241608
    C           -0.226294164766     0.116109413173     0.139931394537
    C            0.908219613689    -0.476603762040    -0.565704796591
    C           -2.401968062195     1.239272066929     1.487928841799
    N            3.094115486751    -1.618872588937    -1.926792946195
    O           -3.418636373202     1.846060897336     2.187797107968
    H           -1.177871882723     0.852337296841    -1.634716831098
    H            0.452883052018    -0.454881998751     2.091412596438
    H           -3.082973462977     1.862593885142    -0.439697376388
    H           -1.469352313748     0.555661344898     3.275477632555
    H           -0.216919220888    -1.164113509677    -2.265496918682
    H            2.385885974202     0.027211254286     0.914617058365
    H            1.750299821273    -2.121158061718    -3.399656016239
    H            4.240045938287    -1.012808533678    -0.330858388142
    H           -4.260621763523     1.494738544749     1.885263196087

*** Psi4 exiting successfully. Buy a developer a beer!
