                               Psi4 1.1 release

  ==> Input File <==

--------------------------------------------------------------------------

memory 1000 mb

molecule butane {
  symmetry C1
  0 1
  H      2.839   1.165   -6.556
  H      2.078   2.447   -7.468
  H      1.706   0.779   -7.827
  C      2.475   1.454   -7.519
  H      3.266   1.705   -9.501
  H      4.401   2.093   -8.230
  C      3.631   1.416   -8.537
  H      3.665   -0.647   -7.940
  H      4.104   -0.384   -9.610
  C      4.203   -0.012   -8.612
  H      6.088   -0.983   -8.270
  H      5.791   0.381   -7.220
  H      6.230   0.644   -8.890
  C      5.691   0.009   -8.218
  units Angstrom
}

dih_string = "14 10 7 4 240"
set optking fixed_dihedral = $dih_string

optimize('MP2/aug-cc-pvtz')
--------------------------------------------------------------------------

    Molecular point group: c1
  Charge       = 0
  Multiplicity = 1
  Basis Set: AUG-CC-PVTZ
    Blend: AUG-CC-PVTZ
  Basis Set: (AUG-CC-PVTZ AUX)
    Blend: AUG-CC-PVTZ-JKFIT
  @DF-RHF Final Energy:  -157.34668700236878
    Total Energy =                       -157.3466870023687818
  Basis Set: (AUG-CC-PVTZ AUX)
    Blend: AUG-CC-PVTZ-RI
    Molecular point group: c1
  Basis Set: AUG-CC-PVTZ
    Blend: AUG-CC-PVTZ
  Basis Set: (AUG-CC-PVTZ AUX)
    Blend: AUG-CC-PVTZ-JKFIT
  Basis Set: (AUG-CC-PVTZ AUX)
    Blend: AUG-CC-PVTZ-JKFIT
	 Reference Energy          =    -157.3466870023687818 [Eh]
	 Singles Energy            =      -0.0000000000000001 [Eh]
	 Same-Spin Energy          =      -0.1655629074680179 [Eh]
	 Opposite-Spin Energy      =      -0.6396781179827922 [Eh]
	 Correlation Energy        =      -0.8052410254508102 [Eh]
	 Total Energy              =    -158.1519280278195936 [Eh]
	 SCS Total Energy          =    -158.1694883797707973 [Eh]
  @DF-RHF Final Energy:  -157.34943029036734
    Total Energy =                       -157.3494302903673372
  @DF-RHF Final Energy:  -157.35029486018658
    Total Energy =                       -157.3502948601865796
  @DF-RHF Final Energy:  -157.35055039805999
    Total Energy =                       -157.3505503980599940
  @DF-RHF Final Energy:  -157.35054152990750
    Total Energy =                       -157.3505415299075025
  Charge       = 0
  Multiplicity = 1
  Basis Set: AUG-CC-PVTZ
    Blend: AUG-CC-PVTZ
  Basis Set: (AUG-CC-PVTZ AUX)
    Blend: AUG-CC-PVTZ-JKFIT

    Orbital Energies (a.u.)
    -----------------------

    Doubly Occupied:

       1A    -11.211195     2A    -11.210608     3A    -11.206680
       4A    -11.206674     5A     -1.071516     6A     -0.981571
       7A     -0.862010     8A     -0.787333     9A     -0.632241
      10A     -0.600862    11A     -0.581473    12A     -0.552342
      13A     -0.509603    14A     -0.509460    15A     -0.465980
      16A     -0.454948    17A     -0.454871

  @DF-RHF Final Energy:  -157.35054746823755

   => Energetics <=

    Nuclear Repulsion Energy =            131.8034826354572147
    One-Electron Energy =                -471.7093270577618114
    Two-Electron Energy =                 182.5552969540670460
    DFT Exchange-Correlation Energy =       0.0000000000000000
    Empirical Dispersion Energy =           0.0000000000000000
    PCM Polarization Energy =               0.0000000000000000
    EFP Energy =                            0.0000000000000000
    Total Energy =                       -157.3505474682375507
  Basis Set: (AUG-CC-PVTZ AUX)
    Blend: AUG-CC-PVTZ-RI
    Molecular point group: c1
  Basis Set: AUG-CC-PVTZ
    Blend: AUG-CC-PVTZ
  Basis Set: (AUG-CC-PVTZ AUX)
    Blend: AUG-CC-PVTZ-JKFIT
  Basis Set: (AUG-CC-PVTZ AUX)
    Blend: AUG-CC-PVTZ-JKFIT
	 Reference Energy          =    -157.3505474682375507 [Eh]
	 Singles Energy            =      -0.0000000000000001 [Eh]
	 Same-Spin Energy          =      -0.1654177909492758 [Eh]
	 Opposite-Spin Energy      =      -0.6400508861051857 [Eh]
	 Correlation Energy        =      -0.8054686770544616 [Eh]
	 Total Energy              =    -158.1560161452919999 [Eh]

	 ================> DF-SCS-MP2 Energies <==================
	-----------------------------------------------------------
	 SCS Same-Spin Scale       =       0.3333333333333333 [-]
	 SCS Opposite-Spin Scale   =       1.2000000000000000 [-]
	 SCS Same-Spin Energy      =      -0.0551392636497586 [Eh]
	 SCS Opposite-Spin Energy  =      -0.7680610633262228 [Eh]
	 SCS Correlation Energy    =      -0.8232003269759816 [Eh]
	 SCS Total Energy          =    -158.1737477952135293 [Eh]
	-----------------------------------------------------------

  -Total Gradient:
     Atom            X                  Y                   Z
    ------   -----------------  -----------------  -----------------
       1       -0.000012570690     0.000002343255    -0.000009906713
       2        0.000001755669    -0.000013032295     0.000004414459
       3        0.000014019006     0.000009506982     0.000000628988
       4        0.000084812677     0.000026488669     0.000071914781
       5       -0.000010103992    -0.000002517114     0.000012126124
       6       -0.000007316115    -0.000012814873    -0.000022673258
       7       -0.000109035821    -0.000013855231    -0.000047144690
       8       -0.000003259218     0.000011322144    -0.000025002507
       9        0.000014533059     0.000003264240     0.000006535020
      10        0.000076277603     0.000007417802    -0.000091870745
      11       -0.000000545540     0.000014034274     0.000003794173
      12        0.000006492106    -0.000003820343    -0.000014388302
      13       -0.000012239070    -0.000008989879     0.000007024701
      14       -0.000042819672    -0.000019347633     0.000104547967

  **** Optimization is complete! (in 6 steps) ****
    Final optimized geometry and variables:
    Molecular point group: c1

    Geometry (in Angstrom), charge = 0, multiplicity = 1:

    H           -1.212209597237     0.449038720827     1.674509056322
    H           -1.971779257163     1.741630053761     0.750169861581
    H           -2.343916483566     0.058977266573     0.387119122270
    C           -1.549093793907     0.741743932689     0.681347024540
    H           -0.748662051194     1.002347240581    -1.288704400278
    H            0.364811167081     1.401444426495    -0.009152476257
    C           -0.399190119271     0.682815776374    -0.307956610037
    H           -0.303981060478    -1.390555831883     0.266764564722
    H            0.113174475004    -1.116096499473    -1.402666908420
    C            0.232469979150    -0.712657467768    -0.398126544681
    H            2.131728459235    -1.712999529455    -0.072750651859
    H            1.840614512869    -0.336563747595     0.986877774950
    H            2.270754463271    -0.072070569484    -0.696962247117
    C            1.704011074379    -0.714014603119    -0.025252301815

*** Psi4 exiting successfully. Buy a developer a beer!
