                              Psi4 1.0.0 Driver

  ==> Input File <==

--------------------------------------------------------------------------

memory 1000 mb

molecule butane {
  symmetry C1
  0 1
  H      1.604   0.760   -8.260
  H      1.745   2.388   -8.880
  H      2.043   1.024   -9.930
  C      2.142   1.395   -8.932
  H      4.169   2.051   -9.210
  H      3.731   1.788   -7.539
  C      3.631   1.416   -8.537
  H      5.179   -0.028   -8.174
  H      3.562   -0.682   -8.078
  C      4.203   -0.012   -8.612
  H      4.691   -1.445   -10.136
  H      4.934   0.216   -10.619
  H      3.317   -0.437   -10.523
  C      4.293   -0.453   -10.084
  units Angstrom
}

dih_string = "4 7 10 14 70"
set optking fixed_dihedral = $dih_string

optimize('MP2/6-31G(d)')
--------------------------------------------------------------------------

    Molecular point group: c1
  Charge       = 0
  Multiplicity = 1
  Basis Set: 6-31G(D)
  Basis Set:
  @DF-RHF Final Energy:  -157.29112539770659
    Total Energy =                       -157.2911253977066508
  Basis Set:
    Molecular point group: c1
  Basis Set: 6-31G(D)
  Basis Set:
  Basis Set:
	 Reference Energy          =    -157.2911253977065940 [Eh]
	 Singles Energy            =      -0.0000000000000000 [Eh]
	 Same-Spin Energy          =      -0.1248590709160616 [Eh]
	 Opposite-Spin Energy      =      -0.4206606886558760 [Eh]
	 Correlation Energy        =      -0.5455197595719377 [Eh]
	 Total Energy              =    -157.8366451572785252 [Eh]
	 SCS Total Energy          =    -157.8375379143990074 [Eh]
  Basis Set: 6-31G(D)
  Basis Set:
  @DF-RHF Final Energy:  -157.29474621757308
    Total Energy =                       -157.2947462175728219
  Basis Set:
  Basis Set: 6-31G(D)
  Basis Set:
  @DF-RHF Final Energy:  -157.29578599095018
    Total Energy =                       -157.2957859909502929
  @DF-RHF Final Energy:  -157.29623740675481
    Total Energy =                       -157.2962374067548410
  @DF-RHF Final Energy:  -157.29626297964984
    Total Energy =                       -157.2962629796499812
	 Singles Energy            =      -0.0000000000000000 [Eh]
	 Same-Spin Energy          =      -0.1246201001175084 [Eh]
	 Opposite-Spin Energy      =      -0.4224406238280101 [Eh]
	 Correlation Energy        =      -0.5470607239455185 [Eh]
	 Total Energy              =    -157.8433237035953596 [Eh]
	 SCS Total Energy          =    -157.8447317616159467 [Eh]
  Charge       = 0
  Multiplicity = 1
  Basis Set: 6-31G(D)
  Basis Set:

    Orbital Energies (a.u.)
    -----------------------

    Doubly Occupied:

       1A    -11.215963     2A    -11.215368     3A    -11.209848
       4A    -11.209846     5A     -1.070326     6A     -0.975452
       7A     -0.870815     8A     -0.775759     9A     -0.621620
      10A     -0.620068    11A     -0.573655    12A     -0.533045
      13A     -0.529704    14A     -0.503010    15A     -0.462817
      16A     -0.456314    17A     -0.456199

  @DF-RHF Final Energy:  -157.29625757345633

   => Energetics <=

    Nuclear Repulsion Energy =            132.5240872748010474
    One-Electron Energy =                -473.0410693297656053
    Two-Electron Energy =                 183.2207244815081424
    DFT Exchange-Correlation Energy =       0.0000000000000000
    Empirical Dispersion Energy =           0.0000000000000000
    PCM Polarization Energy =               0.0000000000000000
    EFP Energy =                            0.0000000000000000
    Total Energy =                       -157.2962575734564155
  Basis Set:
    Molecular point group: c1
  Basis Set: 6-31G(D)
  Basis Set:
  Basis Set:
	 Reference Energy          =    -157.2962575734563302 [Eh]
	 Singles Energy            =      -0.0000000000000000 [Eh]
	 Same-Spin Energy          =      -0.1246219755826463 [Eh]
	 Opposite-Spin Energy      =      -0.4224466507102360 [Eh]
	 Correlation Energy        =      -0.5470686262928822 [Eh]
	 Total Energy              =    -157.8433261997492139 [Eh]

	 ================> DF-SCS-MP2 Energies <==================
	-----------------------------------------------------------
	 SCS Same-Spin Scale       =       0.3333333333333333 [-]
	 SCS Opposite-Spin Scale   =       1.2000000000000000 [-]
	 SCS Same-Spin Energy      =      -0.0415406585275488 [Eh]
	 SCS Opposite-Spin Energy  =      -0.5069359808522831 [Eh]
	 SCS Correlation Energy    =      -0.5484766393798318 [Eh]
	 SCS Total Energy          =    -157.8447342128361583 [Eh]
	-----------------------------------------------------------

  -Total Gradient:
     Atom            X                  Y                   Z
    ------   -----------------  -----------------  -----------------
       1       -0.000004716402     0.000005123094    -0.000005634186
       2       -0.000004910279     0.000008566862     0.000000597561
       3       -0.000002189403    -0.000004671286    -0.000008213896
       4       -0.000167115797    -0.000150226210     0.000804591355
       5       -0.000014480086     0.000000170326    -0.000006519086
       6        0.000029046884    -0.000001972601    -0.000006922577
       7        0.000551345335     0.000322075433    -0.001114241661
       8       -0.000015004742     0.000005658786     0.000021805193
       9       -0.000002042923    -0.000005158136    -0.000012753613
      10       -0.001125631491    -0.000513482277     0.000368712203
      11        0.000003224676    -0.000007694794     0.000001385279
      12       -0.000003951693    -0.000007323095    -0.000002938593
      13       -0.000005900965     0.000002176615    -0.000002493695
      14        0.000762326887     0.000346757283    -0.000037374285

  **** Optimization is complete! (in 6 steps) ****
    Final optimized geometry and variables:
    Molecular point group: c1

    Geometry (in Angstrom), charge = 0, multiplicity = 1:

    H           -2.011930404159     0.208956390105     0.799266240462
    H           -1.831124458334     1.885924096751     0.269020186108
    H           -1.611360510956     0.569555779179    -0.884100189985
    C           -1.433749273204     0.873992702891     0.150439152965
    H            0.613146112385     1.499507306014    -0.140108701551
    H            0.177405944342     1.193935832901     1.532059436648
    C            0.048080979964     0.819840314418     0.509677926477
    H            1.645432038269    -0.573038323494     0.876511409024
    H            0.042878763965    -1.276029818885     1.006969802020
    C            0.651276562611    -0.581608088805     0.414431850920
    H            1.248850580358    -2.084266589885    -1.038399890627
    H            1.393707935623    -0.419532085948    -1.616144920629
    H           -0.195465300688    -1.185050658235    -1.503356322293
    C            0.778774606476    -1.097104355572    -1.015903343920

*** Psi4 exiting successfully. Buy a developer a beer!
