                               Psi4 1.1 release

  ==> Input File <==

--------------------------------------------------------------------------

memory 5 Gb

molecule phepyrFOH_cation {
  symmetry C1
  1 1
  C      1.885   -1.036   -0.112
  C      0.807   -0.463   0.561
  C      5.157   -1.456   -0.400
  C      3.994   -3.565   -0.467
  C      1.800   -1.079   2.676
  C      6.213   -2.052   -1.075
  C      5.079   -4.107   -1.141
  C      2.921   -1.631   0.608
  C      4.038   -2.225   -0.095
  C      0.764   -0.484   1.955
  C      2.878   -1.652   2.002
  N      6.145   -3.344   -1.422
  O      -0.289   0.076   2.612
  F      3.866   -2.220   2.709
  H      1.904   -1.012   -1.199
  H      0.002   -0.002   -0.006
  H      5.219   -0.408   -0.121
  H      3.133   -4.188   -0.243
  H      1.772   -1.099   3.762
  H      7.120   -1.533   -1.352
  H      5.133   -5.136   -1.468
  H      6.931   -3.762   -1.918
  H      -0.175   -0.018   3.571
  units Angstrom
}

dih_string = "1 8 9 3 90"
set optking fixed_dihedral = $dih_string

optimize('MP2/aug-cc-PVTZ')
--------------------------------------------------------------------------

    Molecular point group: c1
  Charge       = 1
  Multiplicity = 1
  Basis Set: AUG-CC-PVTZ
    Blend: AUG-CC-PVTZ
  Basis Set: (AUG-CC-PVTZ AUX)
    Blend: AUG-CC-PVTZ-JKFIT
  @DF-RHF Final Energy:  -650.55586968283876
    Total Energy =                       -650.5558696828388747
  Basis Set: (AUG-CC-PVTZ AUX)
    Blend: AUG-CC-PVTZ-RI
    Molecular point group: c1
  Basis Set: AUG-CC-PVTZ
    Blend: AUG-CC-PVTZ
  Basis Set: (AUG-CC-PVTZ AUX)
    Blend: AUG-CC-PVTZ-JKFIT
  Basis Set: (AUG-CC-PVTZ AUX)
    Blend: AUG-CC-PVTZ-JKFIT
	 Reference Energy          =    -650.5558696828387610 [Eh]
	 Singles Energy            =      -0.0000000000000001 [Eh]
	 Same-Spin Energy          =      -0.6687473552581860 [Eh]
	 Opposite-Spin Energy      =      -2.0140874218396974 [Eh]
	 Correlation Energy        =      -2.6828347770978835 [Eh]
	 Total Energy              =    -653.2387044599366845 [Eh]
	 SCS Total Energy          =    -653.1956903741324822 [Eh]
  @DF-RHF Final Energy:  -650.56143870140738
    Total Energy =                       -650.5614387014072690
  @DF-RHF Final Energy:  -650.56255387082217
    Total Energy =                       -650.5625538708222848
  @DF-RHF Final Energy:  -650.56241328935437
    Total Energy =                       -650.5624132893542537
  Charge       = 1
  Multiplicity = 1
  Basis Set: AUG-CC-PVTZ
    Blend: AUG-CC-PVTZ
  Basis Set: (AUG-CC-PVTZ AUX)
    Blend: AUG-CC-PVTZ-JKFIT

    Orbital Energies (a.u.)
    -----------------------

    Doubly Occupied:

       1A    -26.435892     2A    -20.703158     3A    -15.846531
       4A    -11.490699     5A    -11.490661     6A    -11.460373
       7A    -11.456182     8A    -11.431758     9A    -11.421243
      10A    -11.421211    11A    -11.377216    12A    -11.373550
      13A    -11.354829    14A    -11.344923    15A     -1.754113
      16A     -1.525642    17A     -1.521483    18A     -1.322949
      19A     -1.273928    20A     -1.248717    21A     -1.164368
      22A     -1.150988    23A     -1.072850    24A     -1.065537
      25A     -0.991245    26A     -0.972584    27A     -0.961593
      28A     -0.885693    29A     -0.879287    30A     -0.863018
      31A     -0.852540    32A     -0.823949    33A     -0.820434
      34A     -0.807125    35A     -0.802322    36A     -0.782451
      37A     -0.756354    38A     -0.746699    39A     -0.728809
      40A     -0.716229    41A     -0.707204    42A     -0.687737
      43A     -0.657765    44A     -0.640815    45A     -0.609864
      46A     -0.581776    47A     -0.544822    48A     -0.470474
      49A     -0.444329

  @DF-RHF Final Energy:  -650.56233370405107

   => Energetics <=

    Nuclear Repulsion Energy =            830.4137342662010042
    One-Electron Energy =               -2521.0643039939945993
    Two-Electron Energy =                1040.0882360237424109
    DFT Exchange-Correlation Energy =       0.0000000000000000
    Empirical Dispersion Energy =           0.0000000000000000
    PCM Polarization Energy =               0.0000000000000000
    EFP Energy =                            0.0000000000000000
    Total Energy =                       -650.5623337040510705
  Basis Set: (AUG-CC-PVTZ AUX)
    Blend: AUG-CC-PVTZ-RI
    Molecular point group: c1
  Basis Set: AUG-CC-PVTZ
    Blend: AUG-CC-PVTZ
  Basis Set: (AUG-CC-PVTZ AUX)
    Blend: AUG-CC-PVTZ-JKFIT
  Basis Set: (AUG-CC-PVTZ AUX)
    Blend: AUG-CC-PVTZ-JKFIT
	 Reference Energy          =    -650.5623337040510705 [Eh]
	 Singles Energy            =      -0.0000000000000005 [Eh]
	 Same-Spin Energy          =      -0.6680156201060677 [Eh]
	 Opposite-Spin Energy      =      -2.0119638958715687 [Eh]
	 Correlation Energy        =      -2.6799795159776370 [Eh]
	 Total Energy              =    -653.2423132200286773 [Eh]

	 ================> DF-SCS-MP2 Energies <==================
	-----------------------------------------------------------
	 SCS Same-Spin Scale       =       0.3333333333333333 [-]
	 SCS Opposite-Spin Scale   =       1.2000000000000000 [-]
	 SCS Same-Spin Energy      =      -0.2226718733686892 [Eh]
	 SCS Opposite-Spin Energy  =      -2.4143566750458825 [Eh]
	 SCS Correlation Energy    =      -2.6370285484145723 [Eh]
	 SCS Total Energy          =    -653.1993622524656757 [Eh]
	-----------------------------------------------------------

  -Total Gradient:
     Atom            X                  Y                   Z
    ------   -----------------  -----------------  -----------------
       1       -0.000068220665    -0.000052886971    -0.000011112020
       2        0.000036223577    -0.000006516934    -0.000093474563
       3        0.000050551226    -0.000042167341     0.000054638959
       4        0.000019684095     0.000002519019    -0.000031284955
       5       -0.000033123187     0.000023489270    -0.000014308439
       6       -0.000012614376     0.000034670151    -0.000068898379
       7       -0.000015965753    -0.000001741796    -0.000061124738
       8        0.000189269328    -0.000005571533     0.000021907269
       9       -0.000190705131     0.000075366647    -0.000033793762
      10       -0.000018118734    -0.000011016312     0.000074241558
      11        0.000002087398     0.000001085543     0.000032956704
      12        0.000009066944    -0.000015630594     0.000057722324
      13        0.000031450747    -0.000010687550    -0.000005656989
      14        0.000001358450     0.000006803359    -0.000013574385
      15        0.000016017917    -0.000006954194    -0.000026061014
      16       -0.000015733179     0.000011790763     0.000017686392
      17        0.000003381138     0.000017469938     0.000030570276
      18       -0.000011804315    -0.000014149396     0.000033900124
      19       -0.000002911513     0.000001943453     0.000003207171
      20        0.000004318076    -0.000005070605     0.000008531261
      21        0.000004109772    -0.000003474310     0.000005748175
      22        0.000022770402    -0.000012250509    -0.000003850218
      23       -0.000021092230     0.000012979905     0.000022029260

  **** Optimization is complete! (in 5 steps) ****
    Final optimized geometry and variables:
    Molecular point group: c1

    Geometry (in Angstrom), charge = 1, multiplicity = 1:

    C           -1.380917245464     0.791488498392    -0.766378099034
    C           -2.435415899376     1.350480887085    -0.072217315995
    C            1.945076409099     0.329629366487    -1.089898563785
    C            0.792381924814    -1.766098408163    -1.150145201494
    C           -1.409907918622     0.709714169089     2.013768840053
    C            3.011590622499    -0.255942196827    -1.734484116804
    C            1.873749051159    -2.324868585826    -1.793750446932
    C           -0.325220935015     0.183791553283    -0.088439388059
    C            0.811308366678    -0.421251367722    -0.785609018794
    C           -2.452853702645     1.311258630926     1.319378884880
    C           -0.372025740674     0.160553103745     1.294639548298
    N            2.939203143377    -1.554979849913    -2.060980269259
    O           -3.512654477013     1.876467771188     1.929990956837
    F            0.645433376651    -0.425712347895     1.952766204717
    H           -1.372389838544     0.824575354152    -1.845603663034
    H           -3.254817241319     1.821912346358    -0.590351891711
    H            1.997799836058     1.372131945404    -0.819228665587
    H           -0.065897557373    -2.379713835852    -0.927253297008
    H           -1.391901309375     0.661999711940     3.091577874267
    H            3.917961760304     0.263614201450    -1.996853908610
    H            1.927183292710    -3.355984907655    -2.100734544629
    H            3.730662604650    -1.976754243059    -2.532264914602
    H           -3.433337471651     1.799145625718     2.886736466676

*** Psi4 exiting successfully. Buy a developer a beer!
