                              Psi4 1.0.0 Driver

  ==> Input File <==

--------------------------------------------------------------------------

memory 1000 mb

molecule butane {
  symmetry C1
  0 1
  H      1.604   0.760   -8.260
  H      1.745   2.388   -8.880
  H      2.043   1.024   -9.930
  C      2.142   1.395   -8.932
  H      4.169   2.051   -9.210
  H      3.731   1.788   -7.539
  C      3.631   1.416   -8.537
  H      3.665   -0.647   -7.940
  H      4.104   -0.384   -9.610
  C      4.203   -0.012   -8.612
  H      6.088   -0.983   -8.269
  H      5.790   0.381   -7.219
  H      6.230   0.644   -8.889
  C      5.691   0.009   -8.217
  units Angstrom
}

dih_string = "4 7 10 14 180.001"
set optking fixed_dihedral = $dih_string

optimize('MP2/6-31G(d)')
--------------------------------------------------------------------------

    Molecular point group: c1
  Charge       = 0
  Multiplicity = 1
  Basis Set: 6-31G(D)
  Basis Set:
  @DF-RHF Final Energy:  -157.29412587969421
    Total Energy =                       -157.2941258796942918
  Basis Set:
    Molecular point group: c1
  Basis Set: 6-31G(D)
  Basis Set:
  Basis Set:
	 Reference Energy          =    -157.2941258796942066 [Eh]
	 Singles Energy            =      -0.0000000000000000 [Eh]
	 Same-Spin Energy          =      -0.1243448366672591 [Eh]
	 Opposite-Spin Energy      =      -0.4201068722497108 [Eh]
	 Correlation Energy        =      -0.5444517089169699 [Eh]
	 Total Energy              =    -157.8385775886111730 [Eh]
	 SCS Total Energy          =    -157.8397024052829352 [Eh]
  Basis Set: 6-31G(D)
  Basis Set:
  @DF-RHF Final Energy:  -157.29697906174422
    Total Energy =                       -157.2969790617440822
  Basis Set:
  Basis Set: 6-31G(D)
  Basis Set:
  @DF-RHF Final Energy:  -157.29772851457230
    Total Energy =                       -157.2977285145722988
  @DF-RHF Final Energy:  -157.29789968665753
    Total Energy =                       -157.2978996866574732
	 Singles Energy            =      -0.0000000000000000 [Eh]
	 Same-Spin Energy          =      -0.1244140697636532 [Eh]
	 Opposite-Spin Energy      =      -0.4222101629847872 [Eh]
	 Correlation Energy        =      -0.5466242327484403 [Eh]
	 Total Energy              =    -157.8445239194059582 [Eh]
	 SCS Total Energy          =    -157.8460232388271720 [Eh]
  Charge       = 0
  Multiplicity = 1
  Basis Set: 6-31G(D)
  Basis Set:

    Orbital Energies (a.u.)
    -----------------------

    Doubly Occupied:

       1A    -11.215770     2A    -11.215165     3A    -11.210306
       4A    -11.210302     5A     -1.070638     6A     -0.979809
       7A     -0.859458     8A     -0.786154     9A     -0.637989
      10A     -0.583775    11A     -0.574903    12A     -0.566727
      13A     -0.513760    14A     -0.493864    15A     -0.468912
      16A     -0.460023    17A     -0.455926

  @DF-RHF Final Energy:  -157.29788790559167

   => Energetics <=

    Nuclear Repulsion Energy =            130.8121689603017330
    One-Electron Energy =                -469.6131531328686037
    Two-Electron Energy =                 181.5030962669750636
    DFT Exchange-Correlation Energy =       0.0000000000000000
    Empirical Dispersion Energy =           0.0000000000000000
    PCM Polarization Energy =               0.0000000000000000
    EFP Energy =                            0.0000000000000000
    Total Energy =                       -157.2978879055918071
  Basis Set:
    Molecular point group: c1
  Basis Set: 6-31G(D)
  Basis Set:
  Basis Set:
	 Reference Energy          =    -157.2978879055916650 [Eh]
	 Singles Energy            =      -0.0000000000000000 [Eh]
	 Same-Spin Energy          =      -0.1244475942274912 [Eh]
	 Opposite-Spin Energy      =      -0.4221956770219917 [Eh]
	 Correlation Energy        =      -0.5466432712494829 [Eh]
	 Total Energy              =    -157.8445311768411443 [Eh]

	 ================> DF-SCS-MP2 Energies <==================
	-----------------------------------------------------------
	 SCS Same-Spin Scale       =       0.3333333333333333 [-]
	 SCS Opposite-Spin Scale   =       1.2000000000000000 [-]
	 SCS Same-Spin Energy      =      -0.0414825314091637 [Eh]
	 SCS Opposite-Spin Energy  =      -0.5066348124263901 [Eh]
	 SCS Correlation Energy    =      -0.5481173438355538 [Eh]
	 SCS Total Energy          =    -157.8460052494272077 [Eh]
	-----------------------------------------------------------

  -Total Gradient:
     Atom            X                  Y                   Z
    ------   -----------------  -----------------  -----------------
       1       -0.000037007179    -0.000043642691     0.000049837870
       2       -0.000005655365     0.000074273480     0.000010143453
       3       -0.000006115821    -0.000026060098    -0.000074936492
       4        0.000136622037    -0.000066349450     0.000025864880
       5        0.000018576245    -0.000001397689    -0.000040677685
       6       -0.000000282566    -0.000011791122     0.000044047219
       7       -0.000005128274     0.000018364372     0.000006411976
       8       -0.000021152399     0.000000305066     0.000040810234
       9        0.000002577724     0.000011677653    -0.000045235932
      10        0.000001949480    -0.000017085197    -0.000004119687
      11        0.000007014086    -0.000078336737    -0.000010256570
      12        0.000004949759     0.000024838295     0.000072560953
      13        0.000035439797     0.000042843312    -0.000049231176
      14       -0.000131787524     0.000072360806    -0.000025219043

  **** Optimization is complete! (in 5 steps) ****
    Final optimized geometry and variables:
    Molecular point group: c1

    Geometry (in Angstrom), charge = 0, multiplicity = 1:

    H           -2.366674845538     0.054359240058     0.310665878196
    H           -2.213632703679     1.701929362527    -0.313486059947
    H           -1.922370088340     0.320967705868    -1.379131969901
    C           -1.787225988157     0.695898214441    -0.360097447695
    H            0.244171835872     1.365555188082    -0.638394292538
    H           -0.197086529284     1.100690517421     1.039972008548
    C           -0.312814796024     0.694830638057     0.027406792890
    H           -0.244208714794    -1.365573872161     0.638316398156
    H            0.197155001221    -1.100656258679    -1.040019402001
    C            0.312818629150    -0.694827194507    -0.027432726214
    H            2.213640226138    -1.701932323247     0.313471814633
    H            1.922323874041    -0.321026971589     1.379180888584
    H            2.366677085848    -0.054320390568    -0.310589231935
    C            1.787222563076    -0.695901002711     0.360124554145

*** Psi4 exiting successfully. Buy a developer a beer!
