                               Psi4 1.1 release

  ==> Input File <==

--------------------------------------------------------------------------

memory 5 Gb

molecule phepyrOH_neutral {
  symmetry C1
  0 1
  C      1.885   -1.036   -0.112
  C      2.878   -1.652   2.002
  C      0.807   -0.463   0.561
  C      1.800   -1.079   2.676
  C      3.862   -2.773   -1.356
  C      5.298   -2.250   0.501
  C      4.965   -3.329   -1.983
  C      6.337   -2.829   -0.209
  C      2.921   -1.631   0.608
  C      4.040   -2.225   -0.090
  C      0.764   -0.484   1.955
  N      6.202   -3.372   -1.440
  O      -0.288   0.076   2.612
  H      1.904   -1.012   -1.199
  H      3.678   -2.112   2.578
  H      0.003   -0.001   -0.006
  H      1.772   -1.098   3.762
  H      2.895   -2.772   -1.850
  H      5.475   -1.833   1.487
  H      4.879   -3.768   -2.972
  H      7.337   -2.875   0.208
  H      -1.092   0.017   2.071
  units Angstrom
}

dih_string = "3 11 13 22 30"
set optking fixed_dihedral = $dih_string

optimize('MP2/aug-cc-PVTZ')
--------------------------------------------------------------------------

    Molecular point group: c1
  Charge       = 0
  Multiplicity = 1
  Basis Set: AUG-CC-PVTZ
    Blend: AUG-CC-PVTZ
  Basis Set: (AUG-CC-PVTZ AUX)
    Blend: AUG-CC-PVTZ-JKFIT
  @DF-RHF Final Energy:  -551.28441772603765
    Total Energy =                       -551.2844177260376455
  Basis Set: (AUG-CC-PVTZ AUX)
    Blend: AUG-CC-PVTZ-RI
    Molecular point group: c1
  Basis Set: AUG-CC-PVTZ
    Blend: AUG-CC-PVTZ
  Basis Set: (AUG-CC-PVTZ AUX)
    Blend: AUG-CC-PVTZ-JKFIT
  Basis Set: (AUG-CC-PVTZ AUX)
    Blend: AUG-CC-PVTZ-JKFIT
	 Reference Energy          =    -551.2844177260376455 [Eh]
	 Singles Energy            =      -0.0000000000000003 [Eh]
	 Same-Spin Energy          =      -0.6051336016528756 [Eh]
	 Opposite-Spin Energy      =      -1.8308310682985911 [Eh]
	 Correlation Energy        =      -2.4359646699514670 [Eh]
	 Total Energy              =    -553.7203823959890769 [Eh]
	 SCS Total Energy          =    -553.6831262085469234 [Eh]
  @DF-RHF Final Energy:  -551.29042131713140
    Total Energy =                       -551.2904213171314041
  @DF-RHF Final Energy:  -551.29185448541625
    Total Energy =                       -551.2918544854162519
  @DF-RHF Final Energy:  -551.29190935790928
    Total Energy =                       -551.2919093579092760
  @DF-RHF Final Energy:  -551.29203784509036
    Total Energy =                       -551.2920378450903627
  @DF-RHF Final Energy:  -551.29211447244688
    Total Energy =                       -551.2921144724468832
  Charge       = 0
  Multiplicity = 1
  Basis Set: AUG-CC-PVTZ
    Blend: AUG-CC-PVTZ
  Basis Set: (AUG-CC-PVTZ AUX)
    Blend: AUG-CC-PVTZ-JKFIT

    Orbital Energies (a.u.)
    -----------------------

    Doubly Occupied:

       1A    -20.599007     2A    -15.560030     3A    -11.311652
       4A    -11.271392     5A    -11.271267     6A    -11.264979
       7A    -11.252659     8A    -11.250779     9A    -11.247247
      10A    -11.243807    11A    -11.238178    12A    -11.235439
      13A    -11.235231    14A     -1.415420    15A     -1.257582
      16A     -1.175645    17A     -1.105591    18A     -1.039143
      19A     -1.030206    20A     -1.013064    21A     -0.881483
      22A     -0.872262    23A     -0.843210    24A     -0.812744
      25A     -0.748678    26A     -0.725811    27A     -0.684547
      28A     -0.662089    29A     -0.655060    30A     -0.636090
      31A     -0.625592    32A     -0.606477    33A     -0.601278
      34A     -0.593375    35A     -0.566956    36A     -0.545684
      37A     -0.533804    38A     -0.521288    39A     -0.506829
      40A     -0.491578    41A     -0.416923    42A     -0.397250
      43A     -0.356183    44A     -0.347845    45A     -0.312067

  @DF-RHF Final Energy:  -551.29211996228742

   => Energetics <=

    Nuclear Repulsion Energy =            697.7514307557906932
    One-Electron Energy =               -2132.1602603433939294
    Two-Electron Energy =                 883.1167096253157069
    DFT Exchange-Correlation Energy =       0.0000000000000000
    Empirical Dispersion Energy =           0.0000000000000000
    PCM Polarization Energy =               0.0000000000000000
    EFP Energy =                            0.0000000000000000
    Total Energy =                       -551.2921199622874155
  Basis Set: (AUG-CC-PVTZ AUX)
    Blend: AUG-CC-PVTZ-RI
    Molecular point group: c1
  Basis Set: AUG-CC-PVTZ
    Blend: AUG-CC-PVTZ
  Basis Set: (AUG-CC-PVTZ AUX)
    Blend: AUG-CC-PVTZ-JKFIT
  Basis Set: (AUG-CC-PVTZ AUX)
    Blend: AUG-CC-PVTZ-JKFIT
	 Reference Energy          =    -551.2921199622874155 [Eh]
	 Singles Energy            =      -0.0000000000000002 [Eh]
	 Same-Spin Energy          =      -0.6040242523216308 [Eh]
	 Opposite-Spin Energy      =      -1.8282683827932371 [Eh]
	 Correlation Energy        =      -2.4322926351148682 [Eh]
	 Total Energy              =    -553.7244125974023063 [Eh]

	 ================> DF-SCS-MP2 Energies <==================
	-----------------------------------------------------------
	 SCS Same-Spin Scale       =       0.3333333333333333 [-]
	 SCS Opposite-Spin Scale   =       1.2000000000000000 [-]
	 SCS Same-Spin Energy      =      -0.2013414174405436 [Eh]
	 SCS Opposite-Spin Energy  =      -2.1939220593518844 [Eh]
	 SCS Correlation Energy    =      -2.3952634767924286 [Eh]
	 SCS Total Energy          =    -553.6873834390798947 [Eh]
	-----------------------------------------------------------

  -Total Gradient:
     Atom            X                  Y                   Z
    ------   -----------------  -----------------  -----------------
       1       -0.000037445047    -0.000027983541     0.000003653963
       2       -0.000025898629     0.000010674826     0.000037297436
       3        0.001139922013     0.001782283028     0.000190215305
       4        0.000019862359    -0.000017553784    -0.000002078952
       5        0.000015182918     0.000029296245    -0.000024904419
       6        0.000006756744    -0.000046337410     0.000017210803
       7       -0.000031428571    -0.000051297069     0.000018541982
       8        0.000016845221     0.000068040272    -0.000009878616
       9        0.000079575205    -0.000011268015    -0.000055373515
      10       -0.000062864346     0.000032639015     0.000033505087
      11       -0.001965395888    -0.003260687559    -0.000039139369
      12        0.000018864552    -0.000014914447    -0.000008822528
      13        0.001548832756     0.003945044671    -0.001095105521
      14        0.000005830461     0.000001665131     0.000001007175
      15       -0.000005862551    -0.000002441071    -0.000003247997
      16        0.000001941113     0.000001332225    -0.000009910069
      17       -0.000001249883     0.000001209619     0.000004664674
      18        0.000008736647    -0.000009957030    -0.000004242276
      19        0.000015264009     0.000001485467    -0.000013004986
      20       -0.000006389426     0.000017719790    -0.000013834356
      21       -0.000001456734    -0.000011891808     0.000018499837
      22       -0.000739622944    -0.002437058559     0.000954946340

  **** Optimization is complete! (in 7 steps) ****
    Final optimized geometry and variables:
    Molecular point group: c1

    Geometry (in Angstrom), charge = 0, multiplicity = 1:

    C           -1.246364727567     0.755635359606    -0.565979708795
    C           -0.320539499554     0.064428198557     1.528515389359
    C           -2.319352752282     1.330256474013     0.095583080914
    C           -1.398301320656     0.619710648000     2.195753275683
    C            0.762928126959    -1.091746828341    -1.803507782248
    C            2.191801875265    -0.459683630063    -0.022794435339
    C            1.869034830967    -1.641163198870    -2.431472344175
    C            3.238852614524    -1.036729010914    -0.723076808412
    C           -0.227350747669     0.116903877043     0.137859568607
    C            0.908684559115    -0.478104585069    -0.562500366692
    C           -2.406565744653     1.247775743233     1.478965625777
    N            3.099562463839    -1.624416439098    -1.913806211006
    O           -3.419034545609     1.828040840283     2.189025667647
    H           -1.180335202196     0.842753776230    -1.640303162144
    H            0.443643243739    -0.446943278204     2.094748963511
    H           -3.085118193788     1.850715455665    -0.461820751274
    H           -1.478766317606     0.564451372666     3.270144703724
    H           -0.209118964644    -1.165073611321    -2.267508357560
    H            2.380963910193     0.022924330970     0.924160337010
    H            1.761398778915    -2.124066166724    -3.392783068905
    H            4.238664641675    -1.020709180482    -0.311993330723
    H           -4.211012352384     1.853066217153     1.644204583634

*** Psi4 exiting successfully. Buy a developer a beer!
