                              Psi4 1.0.0 Driver

  ==> Input File <==

--------------------------------------------------------------------------

memory 1000 mb

molecule butane {
  symmetry C1
  0 1
  H      1.604   0.760   -8.260
  H      1.745   2.388   -8.880
  H      2.043   1.024   -9.930
  C      2.142   1.395   -8.932
  H      4.169   2.051   -9.210
  H      3.731   1.788   -7.539
  C      3.631   1.416   -8.537
  H      5.095   -0.070   -8.025
  H      3.482   -0.705   -8.233
  C      4.203   -0.012   -8.612
  H      4.926   -1.351   -10.128
  H      5.249   0.334   -10.456
  H      3.636   -0.302   -10.664
  C      4.528   -0.359   -10.076
  units Angstrom
}

dih_string = "4 7 10 14 80"
set optking fixed_dihedral = $dih_string

optimize('B3LYP/cc-PVDZ')
--------------------------------------------------------------------------

    Molecular point group: c1
  Charge       = 0
  Multiplicity = 1
  Basis Set: CC-PVDZ
   => B3LYP Composite Functional <=
  Basis Set:
  @DF-RKS Final Energy:  -158.44698646378404
    Total Energy =                       -158.4469864637840431
    Molecular point group: c1
  Basis Set: CC-PVDZ
  Basis Set:
   => B3LYP Composite Functional <=
  Basis Set: CC-PVDZ
   => B3LYP Composite Functional <=
  Basis Set:
  @DF-RKS Final Energy:  -158.45291512640935
    Total Energy =                       -158.4529151264093514
  Basis Set: CC-PVDZ
  Basis Set:
   => B3LYP Composite Functional <=
  Basis Set: CC-PVDZ
   => B3LYP Composite Functional <=
  Basis Set:
  @DF-RKS Final Energy:  -158.45573131289680
    Total Energy =                       -158.4557313128968019
  Basis Set: CC-PVDZ
  Basis Set:
  @DF-RKS Final Energy:  -158.45662907694623
    Total Energy =                       -158.4566290769462285
   => B3LYP Composite Functional <=
  Basis Set:
  @DF-RKS Final Energy:  -158.45685473042181
    Total Energy =                       -158.4568547304218100
  Basis Set: CC-PVDZ
  Basis Set:
   => B3LYP Composite Functional <=
  Basis Set: CC-PVDZ
   => B3LYP Composite Functional <=
  Basis Set:
  @DF-RKS Final Energy:  -158.45687111776436
    Total Energy =                       -158.4568711177643650
  Basis Set: CC-PVDZ
  Basis Set:
   => B3LYP Composite Functional <=
  Charge       = 0
  Multiplicity = 1
  Basis Set: CC-PVDZ
   => B3LYP Composite Functional <=
  Basis Set:

    Orbital Energies (a.u.)
    -----------------------

    Doubly Occupied:

       1A    -10.180347     2A    -10.180176     3A    -10.175660
       4A    -10.175658     5A     -0.790018     6A     -0.717481
       7A     -0.634424     8A     -0.565291     9A     -0.451315
      10A     -0.448245    11A     -0.414739    12A     -0.381711
      13A     -0.375640    14A     -0.358114    15A     -0.325230
      16A     -0.320436    17A     -0.316587

  @DF-RKS Final Energy:  -158.45687189624468

   => Energetics <=

    Nuclear Repulsion Energy =            131.2782448614059660
    One-Electron Energy =                -471.0501456168422010
    Two-Electron Energy =                 201.8983495199549338
    DFT Exchange-Correlation Energy =     -20.5833206607633414
    Empirical Dispersion Energy =           0.0000000000000000
    PCM Polarization Energy =               0.0000000000000000
    EFP Energy =                            0.0000000000000000
    Total Energy =                       -158.4568718962446781
    Molecular point group: c1
  Basis Set: CC-PVDZ
  Basis Set:
   => B3LYP Composite Functional <=

  -Total Gradient:
     Atom            X                  Y                   Z
    ------   -----------------  -----------------  -----------------
       1       -0.000005265188     0.000004133536    -0.000002271505
       2       -0.000004413834     0.000000398903     0.000000367217
       3        0.000005644192     0.000001768562     0.000005372852
       4       -0.000379497055    -0.000374976378     0.001681838993
       5       -0.000001560557     0.000004042503    -0.000002197745
       6        0.000003283432    -0.000001246514    -0.000015554518
       7        0.001174914873     0.000834250426    -0.002249985507
       8       -0.000015321357    -0.000002664596    -0.000003710609
       9       -0.000000607697    -0.000004905647    -0.000000963684
      10       -0.002355311825    -0.001208263025     0.000361081498
      11        0.000002421805    -0.000001012493    -0.000003344250
      12        0.000001079100    -0.000005517903    -0.000004083491
      13        0.000002595548     0.000000803177     0.000007896182
      14        0.001577288031     0.000754854569     0.000233954387

  **** Optimization is complete! (in 7 steps) ****
    Final optimized geometry and variables:
    Molecular point group: c1

    Geometry (in Angstrom), charge = 0, multiplicity = 1:

    H           -2.100929376103     0.112938398408     0.838919938112
    H           -1.966507300029     1.799889162035     0.286800178070
    H           -1.710800908924     0.467466243831    -0.859709239072
    C           -1.533368049642     0.791884294936     0.179690919286
    H            0.499542972996     1.516219893384    -0.087513966875
    H            0.069502609293     1.128503776538     1.578625036018
    C           -0.043205970759     0.781761332247     0.535900959345
    H            1.543924454181    -0.616845429276     1.003098154399
    H           -0.040472404099    -1.370636664991     0.822096172204
    C            0.623494340894    -0.597736425123     0.392647302104
    H            1.454745525481    -1.962182288345    -1.105693547886
    H            1.706115342391    -0.238144405433    -1.470680672562
    H            0.105675757457    -0.976494269847    -1.708730245409
    C            0.989966355130    -0.964211243906    -1.049215219640

*** Psi4 exiting successfully. Buy a developer a beer!
