                              Psi4 1.0.0 Driver

  ==> Input File <==

--------------------------------------------------------------------------

memory 1000 mb

molecule butane {
  symmetry C1
  0 1
  H      1.604   0.760   -8.260
  H      1.745   2.388   -8.880
  H      2.043   1.024   -9.930
  C      2.142   1.395   -8.932
  H      4.169   2.051   -9.210
  H      3.731   1.788   -7.539
  C      3.631   1.416   -8.537
  H      4.863   -0.175   -7.786
  H      3.402   -0.720   -8.574
  C      4.203   -0.012   -8.612
  H      5.376   -1.178   -9.982
  H      5.780   0.521   -9.970
  H      4.319   -0.023   -10.757
  C      4.978   -0.186   -9.930
  units Angstrom
}

dih_string = "4 7 10 14 100"
set optking fixed_dihedral = $dih_string

optimize('B3LYP/cc-PVDZ')
--------------------------------------------------------------------------

    Molecular point group: c1
  Charge       = 0
  Multiplicity = 1
  Basis Set: CC-PVDZ
   => B3LYP Composite Functional <=
  Basis Set:
  @DF-RKS Final Energy:  -158.44492332893105
    Total Energy =                       -158.4449233289310541
    Molecular point group: c1
  Basis Set: CC-PVDZ
  Basis Set:
   => B3LYP Composite Functional <=
  Basis Set: CC-PVDZ
   => B3LYP Composite Functional <=
  Basis Set:
  @DF-RKS Final Energy:  -158.45079672696684
    Total Energy =                       -158.4507967269668427
  Basis Set: CC-PVDZ
  Basis Set:
   => B3LYP Composite Functional <=
  Basis Set: CC-PVDZ
   => B3LYP Composite Functional <=
  Basis Set:
  @DF-RKS Final Energy:  -158.45353994017802
    Total Energy =                       -158.4535399401780182
  Basis Set: CC-PVDZ
  Basis Set:
  @DF-RKS Final Energy:  -158.45440187102909
    Total Energy =                       -158.4544018710290914
   => B3LYP Composite Functional <=
  Basis Set:
  @DF-RKS Final Energy:  -158.45463192501285
    Total Energy =                       -158.4546319250128477
  Basis Set: CC-PVDZ
  Basis Set:
   => B3LYP Composite Functional <=
  Basis Set: CC-PVDZ
   => B3LYP Composite Functional <=
  Basis Set:
  @DF-RKS Final Energy:  -158.45466540542063
    Total Energy =                       -158.4546654054206272
  Basis Set: CC-PVDZ
  Basis Set:
   => B3LYP Composite Functional <=
  Charge       = 0
  Multiplicity = 1
  Basis Set: CC-PVDZ
   => B3LYP Composite Functional <=
  Basis Set:

    Orbital Energies (a.u.)
    -----------------------

    Doubly Occupied:

       1A    -10.180044     2A    -10.179884     3A    -10.176077
       4A    -10.176073     5A     -0.789010     6A     -0.718741
       7A     -0.630748     8A     -0.568800     9A     -0.453558
      10A     -0.441752    11A     -0.416787    12A     -0.387504
      13A     -0.367903    14A     -0.360159    15A     -0.327236
      16A     -0.319650    17A     -0.314062

  @DF-RKS Final Energy:  -158.45466442424677

   => Energetics <=

    Nuclear Repulsion Energy =            130.6583539392635203
    One-Electron Energy =                -469.8128351253382675
    Two-Electron Energy =                 201.2819657082720539
    DFT Exchange-Correlation Energy =     -20.5821489464440788
    Empirical Dispersion Energy =           0.0000000000000000
    PCM Polarization Energy =               0.0000000000000000
    EFP Energy =                            0.0000000000000000
    Total Energy =                       -158.4546644242467721
    Molecular point group: c1
  Basis Set: CC-PVDZ
  Basis Set:
   => B3LYP Composite Functional <=

  -Total Gradient:
     Atom            X                  Y                   Z
    ------   -----------------  -----------------  -----------------
       1       -0.000025287880    -0.000004097607    -0.000002531183
       2       -0.000003445173     0.000005768437     0.000006670761
       3        0.000009621928     0.000002321191     0.000002892875
       4       -0.000534834087    -0.000519693174     0.002385210858
       5        0.000013948504     0.000014338147    -0.000015010887
       6        0.000005982189    -0.000003359127    -0.000024646312
       7        0.001561212948     0.001075633471    -0.002836445458
       8       -0.000021911882    -0.000001159985    -0.000013257394
       9       -0.000019246158    -0.000015833806     0.000002321689
      10       -0.003009123692    -0.001472364588    -0.000643773514
      11        0.000007359758    -0.000004693819     0.000003561501
      12        0.000015375524     0.000001338602    -0.000019653623
      13       -0.000004552021    -0.000001043643     0.000009783515
      14        0.002010993109     0.000924515758     0.001159523065

  **** Optimization is complete! (in 7 steps) ****
    Final optimized geometry and variables:
    Molecular point group: c1

    Geometry (in Angstrom), charge = 0, multiplicity = 1:

    H           -2.215459462648     0.058369551282     0.801481902741
    H           -2.097245042011     1.728531665559     0.195631149521
    H           -1.809682195780     0.360049667535    -0.903688940864
    C           -1.649973849025     0.723161461494     0.126627367021
    H            0.372148329795     1.474122780175    -0.135724642829
    H           -0.064215001838     1.106855096866     1.529953745525
    C           -0.162501436128     0.739659189052     0.493274220204
    H            1.207245845926    -0.793298057422     1.217886152568
    H           -0.240773885354    -1.438082160059     0.451549996916
    C            0.520293547247    -0.641508281841     0.366855140895
    H            1.760877491845    -1.820806435885    -1.004237729103
    H            2.135896636184    -0.080201685550    -0.992752378430
    H            0.676583134931    -0.670876739746    -1.820271161759
    C            1.315246162216    -0.814985216510    -0.931311913783

*** Psi4 exiting successfully. Buy a developer a beer!
