                               Psi4 1.1 release

  ==> Input File <==

--------------------------------------------------------------------------

memory 5 Gb

molecule phepyrFOH_zwitterion {
  symmetry C1
  0 1
  C      1.885   -1.036   -0.112
  C      0.807   -0.463   0.561
  C      4.077   -2.201   -1.486
  C      5.074   -2.819   0.618
  C      1.800   -1.079   2.676
  C      5.161   -2.778   -2.133
  C      6.132   -3.381   -0.082
  C      2.921   -1.631   0.608
  C      4.038   -2.224   -0.095
  C      0.764   -0.484   1.955
  C      2.878   -1.652   2.002
  N      6.145   -3.344   -1.422
  O      -0.227   0.043   2.574
  F      3.866   -2.220   2.709
  H      1.904   -1.013   -1.200
  H      0.011   -0.007   -0.025
  H      3.283   -1.743   -2.068
  H      5.069   -2.852   1.704
  H      1.791   -1.109   3.764
  H      5.275   -2.805   -3.208
  H      6.978   -3.862   0.388
  H      6.931   -3.763   -1.917
  units Angstrom
}

dih_string = "1 8 9 3 0.001"
set optking fixed_dihedral = $dih_string

optimize('MP2/aug-cc-PVTZ')
--------------------------------------------------------------------------

    Molecular point group: c1
  Charge       = 0
  Multiplicity = 1
  Basis Set: AUG-CC-PVTZ
    Blend: AUG-CC-PVTZ
  Basis Set: (AUG-CC-PVTZ AUX)
    Blend: AUG-CC-PVTZ-JKFIT
  @DF-RHF Final Energy:  -650.09921821784712
    Total Energy =                       -650.0992182178470102
  Basis Set: (AUG-CC-PVTZ AUX)
    Blend: AUG-CC-PVTZ-RI
    Molecular point group: c1
  Basis Set: AUG-CC-PVTZ
    Blend: AUG-CC-PVTZ
  Basis Set: (AUG-CC-PVTZ AUX)
    Blend: AUG-CC-PVTZ-JKFIT
  Basis Set: (AUG-CC-PVTZ AUX)
    Blend: AUG-CC-PVTZ-JKFIT
	 Reference Energy          =    -650.0992182178471239 [Eh]
	 Singles Energy            =      -0.0000000000000003 [Eh]
	 Same-Spin Energy          =      -0.6802598255302921 [Eh]
	 Opposite-Spin Energy      =      -2.0302313533698482 [Eh]
	 Correlation Energy        =      -2.7104911789001407 [Eh]
	 Total Energy              =    -652.8097093967472802 [Eh]
	 SCS Total Energy          =    -652.7622491170676540 [Eh]
  @DF-RHF Final Energy:  -650.11290067318987
    Total Energy =                       -650.1129006731898698
  @DF-RHF Final Energy:  -650.12378118790582
    Total Energy =                       -650.1237811879057062
  @DF-RHF Final Energy:  -650.13168836705393
    Total Energy =                       -650.1316883670538118
  @DF-RHF Final Energy:  -650.13658866751211
    Total Energy =                       -650.1365886675121146
  @DF-RHF Final Energy:  -650.13899480431110
    Total Energy =                       -650.1389948043110962
  @DF-RHF Final Energy:  -650.14002121927592
    Total Energy =                       -650.1400212192759227
  @DF-RHF Final Energy:  -650.14036663452202
    Total Energy =                       -650.1403666345220245
  @DF-RHF Final Energy:  -650.14042411155879
    Total Energy =                       -650.1404241115587865
  Charge       = 0
  Multiplicity = 1
  Basis Set: AUG-CC-PVTZ
    Blend: AUG-CC-PVTZ
  Basis Set: (AUG-CC-PVTZ AUX)
    Blend: AUG-CC-PVTZ-JKFIT

    Orbital Energies (a.u.)
    -----------------------

    Doubly Occupied:

       1A    -26.310011     2A    -20.485722     3A    -15.666486
       4A    -11.334221     5A    -11.332400     6A    -11.331329
       7A    -11.306500     8A    -11.289728     9A    -11.266894
      10A    -11.259818    11A    -11.245521    12A    -11.237358
      13A    -11.209098    14A    -11.206013    15A     -1.627454
      16A     -1.350305    17A     -1.321385    18A     -1.171724
      19A     -1.116952    20A     -1.091633    21A     -1.020930
      22A     -1.007124    23A     -0.911697    24A     -0.905602
      25A     -0.832832    26A     -0.822263    27A     -0.813571
      28A     -0.744952    29A     -0.719872    30A     -0.713570
      31A     -0.694475    32A     -0.678236    33A     -0.673992
      34A     -0.645756    35A     -0.628202    36A     -0.622470
      37A     -0.609635    38A     -0.602954    39A     -0.568745
      40A     -0.550449    41A     -0.532636    42A     -0.531626
      43A     -0.500217    44A     -0.485470    45A     -0.409752
      46A     -0.402223    47A     -0.382494    48A     -0.349958
      49A     -0.260611

  @DF-RHF Final Energy:  -650.14042609151875

   => Energetics <=

    Nuclear Repulsion Energy =            813.1608036660052221
    One-Electron Energy =               -2501.0367289390223959
    Two-Electron Energy =                1037.7354991814984260
    DFT Exchange-Correlation Energy =       0.0000000000000000
    Empirical Dispersion Energy =           0.0000000000000000
    PCM Polarization Energy =               0.0000000000000000
    EFP Energy =                            0.0000000000000000
    Total Energy =                       -650.1404260915187479
  Basis Set: (AUG-CC-PVTZ AUX)
    Blend: AUG-CC-PVTZ-RI
    Molecular point group: c1
  Basis Set: AUG-CC-PVTZ
    Blend: AUG-CC-PVTZ
  Basis Set: (AUG-CC-PVTZ AUX)
    Blend: AUG-CC-PVTZ-JKFIT
  Basis Set: (AUG-CC-PVTZ AUX)
    Blend: AUG-CC-PVTZ-JKFIT
	 Reference Energy          =    -650.1404260915187479 [Eh]
	 Singles Energy            =      -0.0000000000000001 [Eh]
	 Same-Spin Energy          =      -0.6720083567399285 [Eh]
	 Opposite-Spin Energy      =      -2.0236499457528838 [Eh]
	 Correlation Energy        =      -2.6956583024928125 [Eh]
	 Total Energy              =    -652.8360843940115501 [Eh]

	 ================> DF-SCS-MP2 Energies <==================
	-----------------------------------------------------------
	 SCS Same-Spin Scale       =       0.3333333333333333 [-]
	 SCS Opposite-Spin Scale   =       1.2000000000000000 [-]
	 SCS Same-Spin Energy      =      -0.2240027855799762 [Eh]
	 SCS Opposite-Spin Energy  =      -2.4283799349034605 [Eh]
	 SCS Correlation Energy    =      -2.6523827204834367 [Eh]
	 SCS Total Energy          =    -652.7928088120021357 [Eh]
	-----------------------------------------------------------

  -Total Gradient:
     Atom            X                  Y                   Z
    ------   -----------------  -----------------  -----------------
       1        0.000036249330    -0.000029300281    -0.000008266474
       2        0.000028779591    -0.000011882977    -0.000014662620
       3        0.000005594324    -0.000003261507    -0.000011987083
       4       -0.000080516533     0.000038885370    -0.000024849196
       5       -0.000002452685     0.000000535768     0.000047167943
       6       -0.000036924595     0.000020922281    -0.000028393199
       7        0.000016884555    -0.000006385681    -0.000087462537
       8       -0.000052976489     0.000040125216    -0.000036090953
       9        0.000078690955    -0.000036549145     0.000107761918
      10        0.000033344900    -0.000025596385    -0.000007266871
      11       -0.000038619860     0.000022706583    -0.000058862964
      12        0.000030629572    -0.000015744096     0.000072992410
      13       -0.000021616207     0.000014663583    -0.000004017832
      14        0.000027424428    -0.000018826354     0.000027013246
      15       -0.000007009360     0.000004208414    -0.000008083389
      16       -0.000017517585     0.000009995256     0.000025265205
      17       -0.000010421524     0.000003801417    -0.000007221743
      18        0.000023070448    -0.000012819718    -0.000000498021
      19       -0.000006045514     0.000004409286    -0.000003662462
      20        0.000000283525     0.000000423519     0.000004559918
      21       -0.000007582670     0.000004418199     0.000017677308
      22        0.000000731393    -0.000004728746    -0.000001112594

  **** Optimization is complete! (in 10 steps) ****
    Final optimized geometry and variables:
    Molecular point group: c1

    Geometry (in Angstrom), charge = 0, multiplicity = 1:

    C           -1.351225757498     0.769416803731    -0.741412378085
    C           -2.420372422409     1.339711066863    -0.137523050025
    C            0.881779520784    -0.417413495475    -2.137723229263
    C            1.924388402469    -1.058977900981    -0.081856952441
    C           -1.478211980148     0.749961209043     2.030008129329
    C            1.919513037342    -0.968132542582    -2.816004074951
    C            2.943496271835    -1.598155753496    -0.798968236221
    C           -0.273309962597     0.151835168966    -0.029021617775
    C            0.805905579833    -0.421646402694    -0.707835841190
    C           -2.562945021320     1.371760284384     1.305319965911
    C           -0.430076529107     0.192508943379     1.388140381053
    N            2.948902763088    -1.557384385053    -2.155722244841
    O           -3.534400408073     1.889418090095     1.871487136914
    F            0.534998897509    -0.364975216311     2.163832764328
    H           -1.322756992144     0.788481673045    -1.817918244477
    H           -3.207657888108     1.792872281707    -0.721219240641
    H            0.107582056483     0.028964587951    -2.734723361204
    H            1.987545633319    -1.128276669001     0.986156883863
    H           -1.513938269073     0.734867938031     3.107402905540
    H            1.975659311366    -0.964432223791    -3.892180362512
    H            3.785992639522    -2.078173321520    -0.329082382511
    H            3.711658054488    -1.961865987922    -2.669661958016

*** Psi4 exiting successfully. Buy a developer a beer!
