                               Psi4 1.1 release

  ==> Input File <==

--------------------------------------------------------------------------

memory 5 Gb

molecule phepyrF {
  symmetry C1
  0 1
  C      1.885   -1.036   -0.112
  C      0.807   -0.463   0.561
  C      2.921   -1.631   0.608
  C      0.764   -0.484   1.955
  C      3.789   -2.577   4.091
  C      5.160   -2.560   2.115
  C      4.850   -3.169   4.757
  C      6.160   -3.153   2.870
  C      2.878   -1.652   2.002
  C      3.955   -2.270   2.745
  C      1.800   -1.079   2.676
  N      6.035   -3.466   4.179
  F      1.744   -1.089   4.016
  H      1.918   -1.020   -1.198
  H      0.000   -0.000   -0.000
  H      3.755   -2.073   0.068
  H      -0.076   -0.038   2.480
  H      2.863   -2.366   4.617
  H      5.327   -2.335   1.067
  H      4.770   -3.430   5.807
  H      7.119   -3.399   2.426
  units Angstrom
}

dih_string = "3 9 10 5 195"
set optking fixed_dihedral = $dih_string

optimize('MP2/aug-cc-PVTZ')
--------------------------------------------------------------------------

    Molecular point group: c1
  Charge       = 0
  Multiplicity = 1
  Basis Set: AUG-CC-PVTZ
    Blend: AUG-CC-PVTZ
  Basis Set: (AUG-CC-PVTZ AUX)
    Blend: AUG-CC-PVTZ-JKFIT
  @DF-RHF Final Energy:  -575.27083553643320
    Total Energy =                       -575.2708355364331965
  Basis Set: (AUG-CC-PVTZ AUX)
    Blend: AUG-CC-PVTZ-RI
    Molecular point group: c1
  Basis Set: AUG-CC-PVTZ
    Blend: AUG-CC-PVTZ
  Basis Set: (AUG-CC-PVTZ AUX)
    Blend: AUG-CC-PVTZ-JKFIT
  Basis Set: (AUG-CC-PVTZ AUX)
    Blend: AUG-CC-PVTZ-JKFIT
	 Reference Energy          =    -575.2708355364331965 [Eh]
	 Singles Energy            =      -0.0000000000000002 [Eh]
	 Same-Spin Energy          =      -0.6099018469629320 [Eh]
	 Opposite-Spin Energy      =      -1.8346553883312946 [Eh]
	 Correlation Energy        =      -2.4445572352942264 [Eh]
	 Total Energy              =    -577.7153927717274655 [Eh]
	 SCS Total Energy          =    -577.6757226180850466 [Eh]
  @DF-RHF Final Energy:  -575.27894129158767
    Total Energy =                       -575.2789412915876710
  @DF-RHF Final Energy:  -575.28306903282282
    Total Energy =                       -575.2830690328228229
  @DF-RHF Final Energy:  -575.28494493557957
    Total Energy =                       -575.2849449355795741
  @DF-RHF Final Energy:  -575.28590500839118
    Total Energy =                       -575.2859050083911825
  @DF-RHF Final Energy:  -575.28643274259468
    Total Energy =                       -575.2864327425946840
  @DF-RHF Final Energy:  -575.28672462615475
    Total Energy =                       -575.2867246261547507
  @DF-RHF Final Energy:  -575.28676005392106
    Total Energy =                       -575.2867600539210571
  @DF-RHF Final Energy:  -575.28679224925565
    Total Energy =                       -575.2867922492556545
  @DF-RHF Final Energy:  -575.28676571544872
    Total Energy =                       -575.2867657154487233
  Charge       = 0
  Multiplicity = 1
  Basis Set: AUG-CC-PVTZ
    Blend: AUG-CC-PVTZ
  Basis Set: (AUG-CC-PVTZ AUX)
    Blend: AUG-CC-PVTZ-JKFIT

    Orbital Energies (a.u.)
    -----------------------

    Doubly Occupied:

       1A    -26.320763     2A    -15.562943     3A    -11.341889
       4A    -11.273369     5A    -11.271891     6A    -11.270560
       7A    -11.267644     8A    -11.258625     9A    -11.257930
      10A    -11.251601    11A    -11.248280    12A    -11.239731
      13A    -11.235562    14A     -1.640614    15A     -1.259934
      16A     -1.187275    17A     -1.115645    18A     -1.040544
      19A     -1.033206    20A     -1.031215    21A     -0.895193
      22A     -0.876329    23A     -0.843357    24A     -0.830683
      25A     -0.758582    26A     -0.723546    27A     -0.719590
      28A     -0.707322    29A     -0.674737    30A     -0.663060
      31A     -0.654140    32A     -0.624114    33A     -0.610031
      34A     -0.598627    35A     -0.590703    36A     -0.553439
      37A     -0.542962    38A     -0.528832    39A     -0.521166
      40A     -0.504846    41A     -0.419473    42A     -0.417847
      43A     -0.355580    44A     -0.347664    45A     -0.328141

  @DF-RHF Final Energy:  -575.28680786776329

   => Energetics <=

    Nuclear Repulsion Energy =            714.6630624641579743
    One-Electron Energy =               -2201.1013701870388104
    Two-Electron Energy =                 911.1514998551175495
    DFT Exchange-Correlation Energy =       0.0000000000000000
    Empirical Dispersion Energy =           0.0000000000000000
    PCM Polarization Energy =               0.0000000000000000
    EFP Energy =                            0.0000000000000000
    Total Energy =                       -575.2868078677632866
  Basis Set: (AUG-CC-PVTZ AUX)
    Blend: AUG-CC-PVTZ-RI
    Molecular point group: c1
  Basis Set: AUG-CC-PVTZ
    Blend: AUG-CC-PVTZ
  Basis Set: (AUG-CC-PVTZ AUX)
    Blend: AUG-CC-PVTZ-JKFIT
  Basis Set: (AUG-CC-PVTZ AUX)
    Blend: AUG-CC-PVTZ-JKFIT
	 Reference Energy          =    -575.2868078677632866 [Eh]
	 Singles Energy            =      -0.0000000000000001 [Eh]
	 Same-Spin Energy          =      -0.6078162083641141 [Eh]
	 Opposite-Spin Energy      =      -1.8309310694548264 [Eh]
	 Correlation Energy        =      -2.4387472778189405 [Eh]
	 Total Energy              =    -577.7255551455822342 [Eh]

	 ================> DF-SCS-MP2 Energies <==================
	-----------------------------------------------------------
	 SCS Same-Spin Scale       =       0.3333333333333333 [-]
	 SCS Opposite-Spin Scale   =       1.2000000000000000 [-]
	 SCS Same-Spin Energy      =      -0.2026054027880380 [Eh]
	 SCS Opposite-Spin Energy  =      -2.1971172833457917 [Eh]
	 SCS Correlation Energy    =      -2.3997226861338299 [Eh]
	 SCS Total Energy          =    -577.6865305538971143 [Eh]
	-----------------------------------------------------------

  -Total Gradient:
     Atom            X                  Y                   Z
    ------   -----------------  -----------------  -----------------
       1        0.000033228760     0.000030031410    -0.000004546740
       2        0.000006010832    -0.000032960660     0.000016230741
       3        0.001675566034     0.003294773749     0.000033118503
       4       -0.000046425361    -0.000049469579     0.000040547459
       5        0.001410968947     0.003477337938     0.000953253113
       6        0.000035826310    -0.000107569978     0.000025486338
       7        0.000044565171    -0.000132822843    -0.000047338896
       8        0.000041693976     0.000045710086     0.000061603623
       9       -0.001851260852    -0.002977522328     0.000387563969
      10       -0.001183101049    -0.003727349838    -0.001439010303
      11        0.000030709725     0.000204693754    -0.000180340333
      12       -0.000086799341     0.000016978779    -0.000036736428
      13       -0.000060012389    -0.000092345696     0.000042956834
      14       -0.000005865263    -0.000004619995     0.000025889118
      15        0.000014762573    -0.000019417695     0.000016239014
      16       -0.000073009610    -0.000007618733     0.000027481839
      17        0.000026345677    -0.000015079250    -0.000001995395
      18       -0.000028260196     0.000024682040    -0.000000494589
      19        0.000005308372    -0.000004028169     0.000062484019
      20        0.000017948647     0.000073565971     0.000011407739
      21       -0.000008200962     0.000003031044     0.000006200379

  **** Optimization is complete! (in 11 steps) ****
    Final optimized geometry and variables:
    Molecular point group: c1

    Geometry (in Angstrom), charge = 0, multiplicity = 1:

    C           -1.422304049306     0.845735150698    -2.637502079323
    C           -2.478246500436     1.460763026265    -1.980358123229
    C           -0.422147080122     0.226248859597    -1.909593569173
    C           -2.511383293255     1.449605809746    -0.596769692918
    C            0.621605202238    -0.805232316487     1.564940999123
    C            1.910698186480    -0.667443917262    -0.412146703694
    C            1.724385481869    -1.380550602717     2.177042525313
    C            2.958754569160    -1.243375970708     0.284394332766
    C           -0.424954077890     0.181827865161    -0.510246903717
    C            0.685544316951    -0.443587910894     0.218504130944
    C           -1.499574064151     0.824188248198     0.103530548499
    N            2.888054697127    -1.607843614729     1.566556834535
    F           -1.575508439437     0.885758046947     1.448046560539
    H           -1.379507317424     0.840456063428    -3.715063956178
    H           -3.266602872341     1.945647112457    -2.534310280163
    H            0.369881192865    -0.273045069364    -2.443125918095
    H           -3.304612167433     1.923478352330    -0.041644708170
    H           -0.279180147872    -0.672659073006     2.135537289880
    H            2.073666109844    -0.374476102847    -1.436273258987
    H            1.665970114426    -1.669330464408     3.217140680889
    H            3.904034699737    -1.413841382544    -0.211634140067

*** Psi4 exiting successfully. Buy a developer a beer!
