                               Psi4 1.1 release

  ==> Input File <==

--------------------------------------------------------------------------

memory 5 Gb

molecule phepyrOH_cation {
  symmetry C1
  1 1
  C      1.885   -1.036   -0.112
  C      2.878   -1.652   2.002
  C      0.807   -0.463   0.561
  C      1.800   -1.079   2.676
  C      4.440   -1.719   -1.322
  C      4.716   -3.305   0.469
  C      5.516   -2.309   -1.970
  C      5.786   -3.855   -0.224
  C      2.921   -1.631   0.608
  C      4.040   -2.225   -0.090
  C      0.764   -0.484   1.955
  N      6.150   -3.348   -1.409
  O      -0.288   0.076   2.612
  H      1.904   -1.012   -1.199
  H      3.678   -2.112   2.578
  H      0.003   -0.001   -0.006
  H      1.772   -1.098   3.762
  H      3.931   -0.877   -1.782
  H      4.425   -3.721   1.429
  H      5.897   -1.982   -2.928
  H      6.368   -4.693   0.134
  H      6.938   -3.767   -1.902
  H      -1.116   -0.360   2.354
  units Angstrom
}

dih_string = "3 11 13 23 60"
set optking fixed_dihedral = $dih_string

optimize('MP2/aug-cc-PVTZ')
--------------------------------------------------------------------------

    Molecular point group: c1
  Charge       = 1
  Multiplicity = 1
  Basis Set: AUG-CC-PVTZ
    Blend: AUG-CC-PVTZ
  Basis Set: (AUG-CC-PVTZ AUX)
    Blend: AUG-CC-PVTZ-JKFIT
  @DF-RHF Final Energy:  -551.67169458873434
    Total Energy =                       -551.6716945887343400
  Basis Set: (AUG-CC-PVTZ AUX)
    Blend: AUG-CC-PVTZ-RI
    Molecular point group: c1
  Basis Set: AUG-CC-PVTZ
    Blend: AUG-CC-PVTZ
  Basis Set: (AUG-CC-PVTZ AUX)
    Blend: AUG-CC-PVTZ-JKFIT
  Basis Set: (AUG-CC-PVTZ AUX)
    Blend: AUG-CC-PVTZ-JKFIT
	 Reference Energy          =    -551.6716945887343400 [Eh]
	 Singles Energy            =      -0.0000000000000002 [Eh]
	 Same-Spin Energy          =      -0.5962581636947827 [Eh]
	 Opposite-Spin Energy      =      -1.8248179312912973 [Eh]
	 Correlation Energy        =      -2.4210760949860801 [Eh]
	 Total Energy              =    -554.0927706837204596 [Eh]
	 SCS Total Energy          =    -554.0602288275155161 [Eh]
  @DF-RHF Final Energy:  -551.67659798114130
    Total Energy =                       -551.6765979811412990
  @DF-RHF Final Energy:  -551.67748762287079
    Total Energy =                       -551.6774876228707853
  @DF-RHF Final Energy:  -551.67748074791723
    Total Energy =                       -551.6774807479172296
  @DF-RHF Final Energy:  -551.67749985769376
    Total Energy =                       -551.6774998576937605
  Charge       = 1
  Multiplicity = 1
  Basis Set: AUG-CC-PVTZ
    Blend: AUG-CC-PVTZ
  Basis Set: (AUG-CC-PVTZ AUX)
    Blend: AUG-CC-PVTZ-JKFIT

    Orbital Energies (a.u.)
    -----------------------

    Doubly Occupied:

       1A    -20.694067     2A    -15.829804     3A    -11.481082
       4A    -11.481052     5A    -11.451185     6A    -11.427869
       7A    -11.411151     8A    -11.411050     9A    -11.378034
      10A    -11.376849    11A    -11.375740    12A    -11.354693
      13A    -11.350941    14A     -1.515005    15A     -1.508524
      16A     -1.319830    17A     -1.266826    18A     -1.239239
      19A     -1.157139    20A     -1.155085    21A     -1.064059
      22A     -1.058195    23A     -0.973535    24A     -0.963243
      25A     -0.953776    26A     -0.868711    27A     -0.862413
      28A     -0.855354    29A     -0.819441    30A     -0.801761
      31A     -0.781073    32A     -0.771125    33A     -0.758361
      34A     -0.746338    35A     -0.725207    36A     -0.709914
      37A     -0.702855    38A     -0.665375    39A     -0.658061
      40A     -0.637118    41A     -0.602879    42A     -0.573082
      43A     -0.540263    44A     -0.471796    45A     -0.445596

  @DF-RHF Final Energy:  -551.67750454938425

   => Energetics <=

    Nuclear Repulsion Energy =            713.1112791477277142
    One-Electron Energy =               -2149.1881775790193387
    Two-Electron Energy =                 884.3993938819074856
    DFT Exchange-Correlation Energy =       0.0000000000000000
    Empirical Dispersion Energy =           0.0000000000000000
    PCM Polarization Energy =               0.0000000000000000
    EFP Energy =                            0.0000000000000000
    Total Energy =                       -551.6775045493842526
  Basis Set: (AUG-CC-PVTZ AUX)
    Blend: AUG-CC-PVTZ-RI
    Molecular point group: c1
  Basis Set: AUG-CC-PVTZ
    Blend: AUG-CC-PVTZ
  Basis Set: (AUG-CC-PVTZ AUX)
    Blend: AUG-CC-PVTZ-JKFIT
  Basis Set: (AUG-CC-PVTZ AUX)
    Blend: AUG-CC-PVTZ-JKFIT
	 Reference Energy          =    -551.6775045493842526 [Eh]
	 Singles Energy            =      -0.0000000000000004 [Eh]
	 Same-Spin Energy          =      -0.5955444107381499 [Eh]
	 Opposite-Spin Energy      =      -1.8231561118919397 [Eh]
	 Correlation Energy        =      -2.4187005226300902 [Eh]
	 Total Energy              =    -554.0962050720142997 [Eh]

	 ================> DF-SCS-MP2 Energies <==================
	-----------------------------------------------------------
	 SCS Same-Spin Scale       =       0.3333333333333333 [-]
	 SCS Opposite-Spin Scale   =       1.2000000000000000 [-]
	 SCS Same-Spin Energy      =      -0.1985148035793833 [Eh]
	 SCS Opposite-Spin Energy  =      -2.1877873342703276 [Eh]
	 SCS Correlation Energy    =      -2.3863021378497113 [Eh]
	 SCS Total Energy          =    -554.0638066872339778 [Eh]
	-----------------------------------------------------------

  -Total Gradient:
     Atom            X                  Y                   Z
    ------   -----------------  -----------------  -----------------
       1       -0.000043203534     0.000041563659    -0.000034528419
       2        0.000042749194     0.000028602540     0.000032720042
       3        0.001852326658     0.002674908542     0.000154828579
       4       -0.000030012295     0.000040477891     0.000027904578
       5        0.000051345121     0.000021586630    -0.000036972008
       6        0.000027499528    -0.000071803980    -0.000016525406
       7       -0.000006228755     0.000015962600    -0.000016195066
       8       -0.000001127974    -0.000018968362     0.000015431790
       9       -0.000072102081    -0.000002747435     0.000049701241
      10        0.000026142171    -0.000004352214     0.000002867956
      11       -0.002690343696    -0.004989193353     0.000415537901
      12       -0.000013407875     0.000010231008     0.000015076831
      13        0.000624126019     0.005237242678    -0.003674299294
      14        0.000042348670    -0.000029116973     0.000003695269
      15        0.000012870042    -0.000006020386    -0.000039660144
      16       -0.000004211477    -0.000000489190     0.000028360746
      17       -0.000015348558    -0.000004338505    -0.000017730637
      18       -0.000032032279    -0.000002479560     0.000030608897
      19       -0.000021644908     0.000031469671    -0.000005981553
      20        0.000002283097    -0.000009533502     0.000006376529
      21        0.000004309747     0.000006887964    -0.000009391748
      22       -0.000007923868     0.000002871764     0.000004614909
      23        0.000251587054    -0.002972761493     0.003063559004

  **** Optimization is complete! (in 6 steps) ****
    Final optimized geometry and variables:
    Molecular point group: c1

    Geometry (in Angstrom), charge = 1, multiplicity = 1:

    C           -1.275747299349     0.740417312355    -0.571509458002
    C           -0.312542738059     0.102385286709     1.541207731701
    C           -2.342494766588     1.317282195633     0.088710075134
    C           -1.377132092978     0.681836093972     2.201976594428
    C            1.296498534275    -0.015920724986    -1.799463277545
    C            1.589137883476    -1.547333702633     0.008996820915
    C            2.362973763386    -0.594249131774    -2.440109282436
    C            2.652409848958    -2.103874302090    -0.655823843573
    C           -0.246590642318     0.121825677117     0.144691483728
    C            0.874057624924    -0.478140993727    -0.546231446935
    C           -2.407198351615     1.273212986975     1.478820313184
    N            3.009327418544    -1.616204630836    -1.855327986546
    O           -3.388247494471     1.910645548263     2.170052950994
    H           -1.262582942545     0.751096523089    -1.650953214451
    H            0.490435219028    -0.327419805318     2.120830845394
    H           -3.132764212665     1.801003978123    -0.464718073082
    H           -1.426004239822     0.693359051588     3.279267415161
    H            0.810776488191     0.822652253420    -2.270313355582
    H            1.298968059847    -1.971542044540     0.955961132347
    H            2.731736393214    -0.268215725102    -3.398313218808
    H            3.226870414279    -2.931923284571    -0.275303364976
    H            3.795029396170    -2.034380859370    -2.336581034189
    H           -4.255845524623     1.582039304239     1.912069851778

*** Psi4 exiting successfully. Buy a developer a beer!
