                               Psi4 1.1 release

  ==> Input File <==

--------------------------------------------------------------------------

molecule phepyr {
  symmetry C1
  0 1
  C      1.885   -1.036   -0.112
  C      0.807   -0.463   0.561
  C      2.921   -1.631   0.608
  C      0.764   -0.484   1.955
  C      2.878   -1.652   2.002
  C      2.786   -1.692   4.843
  C      0.681   -0.529   4.795
  C      2.696   -1.686   6.226
  C      0.686   -0.574   6.180
  C      1.800   -1.079   2.676
  C      1.755   -1.100   4.122
  N      1.669   -1.140   6.915
  H      1.917   -1.021   -1.198
  H      -0.001   -0.002   0.000
  H      3.760   -2.079   0.084
  H      -0.084   -0.033   2.466
  H      3.693   -2.120   2.550
  H      3.640   -2.148   4.353
  H      -0.141   -0.058   4.266
  H      3.475   -2.133   6.835
  H      -0.129   -0.143   6.752
  units Angstrom
}

dih_string = "4 10 11 6 180.001"
set optking fixed_dihedral = $dih_string

optimize('MP2/aug-cc-PVTZ')
--------------------------------------------------------------------------

    Molecular point group: c1
  Charge       = 0
  Multiplicity = 1
  Basis Set: AUG-CC-PVTZ
    Blend: AUG-CC-PVTZ
  Basis Set: (AUG-CC-PVTZ AUX)
    Blend: AUG-CC-PVTZ-JKFIT
  @DF-RHF Final Energy:  -476.38917811227373
    Total Energy =                       -476.3891781122737257
  Basis Set: (AUG-CC-PVTZ AUX)
    Blend: AUG-CC-PVTZ-RI
    Molecular point group: c1
  Basis Set: AUG-CC-PVTZ
    Blend: AUG-CC-PVTZ
  Basis Set: (AUG-CC-PVTZ AUX)
    Blend: AUG-CC-PVTZ-JKFIT
  Basis Set: (AUG-CC-PVTZ AUX)
    Blend: AUG-CC-PVTZ-JKFIT
	 Reference Energy          =    -476.3891781122737257 [Eh]
	 Singles Energy            =      -0.0000000000000007 [Eh]
	 Same-Spin Energy          =      -0.5360484017629081 [Eh]
	 Opposite-Spin Energy      =      -1.6457452674695847 [Eh]
	 Correlation Energy        =      -2.1817936692324937 [Eh]
	 Total Energy              =    -478.5709717815062163 [Eh]
	 SCS Total Energy          =    -478.5427552338248915 [Eh]
  @DF-RHF Final Energy:  -476.39651336701957
    Total Energy =                       -476.3965133670195655
  @DF-RHF Final Energy:  -476.39844799374708
    Total Energy =                       -476.3984479937471406
  @DF-RHF Final Energy:  -476.39841037507261
    Total Energy =                       -476.3984103750725581
  @DF-RHF Final Energy:  -476.39837670223619
    Total Energy =                       -476.3983767022361917
  @DF-RHF Final Energy:  -476.39830223255666
    Total Energy =                       -476.3983022325567163
  @DF-RHF Final Energy:  -476.39817409875656
    Total Energy =                       -476.3981740987564990
    Molecular point group: c1
  Charge       = 0
  Multiplicity = 1
  Basis Set: AUG-CC-PVTZ
    Blend: AUG-CC-PVTZ
  Basis Set: (AUG-CC-PVTZ AUX)
    Blend: AUG-CC-PVTZ-JKFIT

    Orbital Energies (a.u.)
    -----------------------

    Doubly Occupied:

       1A    -15.561508     2A    -11.272004     3A    -11.271985
       4A    -11.269876     5A    -11.257084     6A    -11.245950
       7A    -11.245799     8A    -11.245118     9A    -11.243580
      10A    -11.243121    11A    -11.237535    12A    -11.237376
      13A     -1.258833    14A     -1.175915    15A     -1.108242
      16A     -1.038206    17A     -1.025969    18A     -1.020036
      19A     -0.883672    20A     -0.870165    21A     -0.825969
      22A     -0.811473    23A     -0.738471    24A     -0.685828
      25A     -0.674517    26A     -0.666261    27A     -0.629903
      28A     -0.621588    29A     -0.608958    30A     -0.585787
      31A     -0.584918    32A     -0.553594    33A     -0.529037
      34A     -0.516363    35A     -0.513263    36A     -0.491585
      37A     -0.418773    38A     -0.413021    39A     -0.353014
      40A     -0.345176    41A     -0.319156

  @DF-RHF Final Energy:  -476.39799207999226

   => Energetics <=

    Nuclear Repulsion Energy =            605.3847699046907564
    One-Electron Energy =               -1844.3682708525016096
    Two-Electron Energy =                 762.5855088678185894
    DFT Exchange-Correlation Energy =       0.0000000000000000
    Empirical Dispersion Energy =           0.0000000000000000
    PCM Polarization Energy =               0.0000000000000000
    EFP Energy =                            0.0000000000000000
    Total Energy =                       -476.3979920799922638
  Basis Set: (AUG-CC-PVTZ AUX)
    Blend: AUG-CC-PVTZ-RI
    Molecular point group: c1

    Geometry (in Angstrom), charge = 0, multiplicity = 1:

       Center              X                  Y                   Z               Mass
    ------------   -----------------  -----------------  -----------------  -----------------
           C          0.092575138806     0.020424388660    -3.571319468362    12.000000000000
           C         -0.998765933051     0.544485398155    -2.892950471448    12.000000000000
           C          1.158034992737    -0.493414738646    -2.844597659143    12.000000000000
           C         -1.018632133447     0.559918689701    -1.507124384937    12.000000000000
           C          1.133475800267    -0.475759615226    -1.458873713687    12.000000000000
           C          0.960680383301    -0.636716595867     1.473968920795    12.000000000000
           C         -1.034100617668     0.623525221240     1.433162550921    12.000000000000
           C          0.854265573637    -0.673093960662     2.854912817747    12.000000000000
           C         -1.060666729292     0.535376957630     2.815675792708    12.000000000000
           C          0.055880617939     0.070828467509    -0.757868770859    12.000000000000
           C          0.010447341176     0.045820949291     0.712027908661    12.000000000000
           N         -0.134977882805    -0.097031612466     3.540850545576    14.003074004780
           H          0.108569025338     0.004917718949    -4.650701029423     1.007825032070
           H         -1.841058271514     0.938700603912    -3.442834500389     1.007825032070
           H          2.010140291308    -0.914605665346    -3.356497393910     1.007825032070
           H         -1.886320440518     0.965073852361    -1.012249443599     1.007825032070
           H          1.972857512662    -0.892129422751    -0.925836420209     1.007825032070
           H          1.793036381817    -1.143337047059     1.013283123871     1.007825032070
           H         -1.834907532300     1.149360490361     0.939007030224     1.007825032070
           H          1.599416933499    -1.198953601717     3.438051571608     1.007825032070
           H         -1.870363803886     0.993732887585     3.367058087973     1.007825032070

  Basis Set: AUG-CC-PVTZ
    Blend: AUG-CC-PVTZ
  Basis Set: (AUG-CC-PVTZ AUX)
    Blend: AUG-CC-PVTZ-JKFIT
  Basis Set: (AUG-CC-PVTZ AUX)
    Blend: AUG-CC-PVTZ-JKFIT
	 Reference Energy          =    -476.3979920799922638 [Eh]
	 Singles Energy            =      -0.0000000000000012 [Eh]
	 Same-Spin Energy          =      -0.5345749002747353 [Eh]
	 Opposite-Spin Energy      =      -1.6424366006430997 [Eh]
	 Correlation Energy        =      -2.1770115009178364 [Eh]
	 Total Energy              =    -478.5750035809101064 [Eh]

	 ================> DF-SCS-MP2 Energies <==================
	-----------------------------------------------------------
	 SCS Same-Spin Scale       =       0.3333333333333333 [-]
	 SCS Opposite-Spin Scale   =       1.2000000000000000 [-]
	 SCS Same-Spin Energy      =      -0.1781916334249118 [Eh]
	 SCS Opposite-Spin Energy  =      -1.9709239207717195 [Eh]
	 SCS Correlation Energy    =      -2.1491155541966327 [Eh]
	 SCS Total Energy          =    -478.5471076341888761 [Eh]
	-----------------------------------------------------------

  -Total Gradient:
     Atom            X                  Y                   Z
    ------   -----------------  -----------------  -----------------
       1       -0.000500468626    -0.000322631888    -0.000122784077
       2        0.000300120418     0.000571034071     0.000020892814
       3        0.000756766584     0.000518268367     0.000176368075
       4       -0.001992095165    -0.003548753019    -0.000751007670
       5       -0.001367659028    -0.002423537360    -0.000241116674
       6       -0.001463476580    -0.003277784207     0.000570880447
       7       -0.001062022244    -0.001818548979    -0.000056763728
       8        0.000014979799     0.000428688936     0.000076861288
       9       -0.000345012191     0.000186956866    -0.000065983695
      10        0.003259442515     0.005522077647     0.001048993997
      11        0.002753816928     0.005698568837    -0.000708055541
      12        0.000477767081    -0.000238346843     0.000374804372
      13       -0.000194957516    -0.000191389537    -0.000261039837
      14       -0.000396699011     0.000554824043    -0.000382824597
      15        0.000187432671    -0.000026647130    -0.000042322135
      16       -0.000316432022     0.000126733685    -0.000061422246
      17       -0.000131591884    -0.000779097752     0.000017194826
      18        0.000291997303    -0.000113576654     0.000128710560
      19       -0.000603968216    -0.000446803367    -0.000129670863
      20        0.000503657820    -0.000441089653     0.000417389526
      21       -0.000171598638     0.000021053936    -0.000009104859

*** Psi4 exiting successfully. Buy a developer a beer!
