                               Psi4 1.1 release

  ==> Input File <==

--------------------------------------------------------------------------

memory 1000 mb

molecule butane {
  symmetry C1
  0 1
  H      4.199   1.706   -6.486
  H      2.908   2.756   -7.020
  H      2.585   1.071   -6.692
  C      3.306   1.764   -7.072
  H      2.737   1.473   -9.123
  H      4.352   2.109   -8.918
  C      3.631   1.416   -8.537
  H      3.665   -0.647   -7.940
  H      4.104   -0.384   -9.610
  C      4.203   -0.012   -8.612
  H      6.088   -0.983   -8.270
  H      5.791   0.381   -7.220
  H      6.230   0.644   -8.890
  C      5.691   0.009   -8.218
  units Angstrom
}

dih_string = "14 10 7 4 280"
set optking fixed_dihedral = $dih_string

optimize('MP2/aug-cc-pvtz')
--------------------------------------------------------------------------

    Molecular point group: c1
  Charge       = 0
  Multiplicity = 1
  Basis Set: AUG-CC-PVTZ
    Blend: AUG-CC-PVTZ
  Basis Set: (AUG-CC-PVTZ AUX)
    Blend: AUG-CC-PVTZ-JKFIT
  @DF-RHF Final Energy:  -157.34995337750155
    Total Energy =                       -157.3499533775015493
  Basis Set: (AUG-CC-PVTZ AUX)
    Blend: AUG-CC-PVTZ-RI
    Molecular point group: c1
  Basis Set: AUG-CC-PVTZ
    Blend: AUG-CC-PVTZ
  Basis Set: (AUG-CC-PVTZ AUX)
    Blend: AUG-CC-PVTZ-JKFIT
  Basis Set: (AUG-CC-PVTZ AUX)
    Blend: AUG-CC-PVTZ-JKFIT
	 Reference Energy          =    -157.3499533775015493 [Eh]
	 Singles Energy            =      -0.0000000000000001 [Eh]
	 Same-Spin Energy          =      -0.1659511121299626 [Eh]
	 Opposite-Spin Energy      =      -0.6394729400067611 [Eh]
	 Correlation Energy        =      -0.8054240521367239 [Eh]
	 Total Energy              =    -158.1553774296382642 [Eh]
	 SCS Total Energy          =    -158.1726379428863254 [Eh]
  @DF-RHF Final Energy:  -157.35275448767180
    Total Energy =                       -157.3527544876718025
  @DF-RHF Final Energy:  -157.35368719766669
    Total Energy =                       -157.3536871976666873
  @DF-RHF Final Energy:  -157.35399257247286
    Total Energy =                       -157.3539925724728619
  @DF-RHF Final Energy:  -157.35398997442124
    Total Energy =                       -157.3539899744212391
  Charge       = 0
  Multiplicity = 1
  Basis Set: AUG-CC-PVTZ
    Blend: AUG-CC-PVTZ
  Basis Set: (AUG-CC-PVTZ AUX)
    Blend: AUG-CC-PVTZ-JKFIT

    Orbital Energies (a.u.)
    -----------------------

    Doubly Occupied:

       1A    -11.211496     2A    -11.210873     3A    -11.205872
       4A    -11.205871     5A     -1.074129     6A     -0.978167
       7A     -0.870029     8A     -0.779945     9A     -0.625249
      10A     -0.620846    11A     -0.576753    12A     -0.535598
      13A     -0.527328    14A     -0.504730    15A     -0.466048
      16A     -0.456992    17A     -0.455344

  @DF-RHF Final Energy:  -157.35399529861743

   => Energetics <=

    Nuclear Repulsion Energy =            133.1087999476593495
    One-Electron Energy =                -474.3150503852930342
    Two-Electron Energy =                 183.8522551390162505
    DFT Exchange-Correlation Energy =       0.0000000000000000
    Empirical Dispersion Energy =           0.0000000000000000
    PCM Polarization Energy =               0.0000000000000000
    EFP Energy =                            0.0000000000000000
    Total Energy =                       -157.3539952986174342
  Basis Set: (AUG-CC-PVTZ AUX)
    Blend: AUG-CC-PVTZ-RI
    Molecular point group: c1
  Basis Set: AUG-CC-PVTZ
    Blend: AUG-CC-PVTZ
  Basis Set: (AUG-CC-PVTZ AUX)
    Blend: AUG-CC-PVTZ-JKFIT
  Basis Set: (AUG-CC-PVTZ AUX)
    Blend: AUG-CC-PVTZ-JKFIT
	 Reference Energy          =    -157.3539952986174342 [Eh]
	 Singles Energy            =      -0.0000000000000000 [Eh]
	 Same-Spin Energy          =      -0.1657549363937042 [Eh]
	 Opposite-Spin Energy      =      -0.6397133653047622 [Eh]
	 Correlation Energy        =      -0.8054683016984664 [Eh]
	 Total Energy              =    -158.1594636003158882 [Eh]

	 ================> DF-SCS-MP2 Energies <==================
	-----------------------------------------------------------
	 SCS Same-Spin Scale       =       0.3333333333333333 [-]
	 SCS Opposite-Spin Scale   =       1.2000000000000000 [-]
	 SCS Same-Spin Energy      =      -0.0552516454645681 [Eh]
	 SCS Opposite-Spin Energy  =      -0.7676560383657146 [Eh]
	 SCS Correlation Energy    =      -0.8229076838302827 [Eh]
	 SCS Total Energy          =    -158.1769029824477286 [Eh]
	-----------------------------------------------------------

  -Total Gradient:
     Atom            X                  Y                   Z
    ------   -----------------  -----------------  -----------------
       1       -0.000001318741     0.000004417577    -0.000008509497
       2       -0.000005619213     0.000006121239     0.000004609548
       3       -0.000003177312     0.000002844091     0.000005585161
       4       -0.001418359062    -0.000631174819    -0.000188477392
       5        0.000002062659     0.000007548272     0.000019521725
       6        0.000006419530     0.000005237925     0.000001446793
       7        0.002069555829     0.001012961812    -0.000321772494
       8       -0.000000922608    -0.000003559086     0.000007877225
       9        0.000017464804    -0.000001312437     0.000011829821
      10       -0.001042101021    -0.000686827712     0.001963170037
      11        0.000007527509    -0.000005633047    -0.000001380832
      12       -0.000006456602    -0.000006877175    -0.000003346740
      13        0.000006637697    -0.000001870866     0.000000391081
      14        0.000368286533     0.000298124229    -0.001490944435

  **** Optimization is complete! (in 6 steps) ****
    Final optimized geometry and variables:
    Molecular point group: c1

    Geometry (in Angstrom), charge = 0, multiplicity = 1:

    H           -0.078449727035     0.923061163027     1.672285073268
    H           -1.373895611243     1.960273912410     1.097589636105
    H           -1.688926936401     0.260193989061     1.427055165264
    C           -0.955404999674     0.958764344538     1.029117960467
    H           -1.513993706252     0.635704211017    -1.006652721231
    H            0.074489567568     1.341419198715    -0.820928535915
    C           -0.606593198882     0.597809801720    -0.404223430689
    H           -0.518679103182    -1.482384181375     0.111288005280
    H           -0.084928433181    -1.143130297785    -1.547800608308
    C            0.024799905546    -0.782444701762    -0.525255910888
    H            1.922325553402    -1.786227090737    -0.221414503007
    H            1.658566002782    -0.421606721038     0.852134944347
    H            2.057672140769    -0.143168048320    -0.837941136140
    C            1.499053816484    -0.786234778234    -0.160579725791

*** Psi4 exiting successfully. Buy a developer a beer!
