                               Psi4 1.1 release

  ==> Input File <==

--------------------------------------------------------------------------

memory 5 Gb

molecule phepyrFOH_anion {
  symmetry C1
  -1 1
  C      1.885   -1.036   -0.112
  C      0.807   -0.463   0.561
  C      3.856   -2.770   -1.361
  C      5.298   -2.250   0.493
  C      1.800   -1.079   2.676
  C      4.957   -3.324   -1.992
  C      6.335   -2.828   -0.222
  C      2.921   -1.631   0.608
  C      4.038   -2.224   -0.095
  C      0.764   -0.484   1.955
  C      2.878   -1.652   2.002
  N      6.197   -3.368   -1.454
  O      -0.227   0.043   2.574
  F      3.866   -2.220   2.709
  H      1.904   -1.013   -1.200
  H      0.011   -0.007   -0.025
  H      2.888   -2.767   -1.852
  H      5.478   -1.834   1.479
  H      1.791   -1.109   3.764
  H      4.869   -3.761   -2.982
  H      7.336   -2.874   0.192
  units Angstrom
}

dih_string = "1 8 9 3 330"
set optking fixed_dihedral = $dih_string

optimize('MP2/aug-cc-PVTZ')
--------------------------------------------------------------------------

    Molecular point group: c1
  Charge       = -1
  Multiplicity = 1
  Basis Set: AUG-CC-PVTZ
    Blend: AUG-CC-PVTZ
  Basis Set: (AUG-CC-PVTZ AUX)
    Blend: AUG-CC-PVTZ-JKFIT
  @DF-RHF Final Energy:  -649.60870230886928
    Total Energy =                       -649.6087023088693968
  Basis Set: (AUG-CC-PVTZ AUX)
    Blend: AUG-CC-PVTZ-RI
    Molecular point group: c1
  Basis Set: AUG-CC-PVTZ
    Blend: AUG-CC-PVTZ
  Basis Set: (AUG-CC-PVTZ AUX)
    Blend: AUG-CC-PVTZ-JKFIT
  Basis Set: (AUG-CC-PVTZ AUX)
    Blend: AUG-CC-PVTZ-JKFIT
	 Reference Energy          =    -649.6087023088692831 [Eh]
	 Singles Energy            =      -0.0000000000000001 [Eh]
	 Same-Spin Energy          =      -0.6868860796861267 [Eh]
	 Opposite-Spin Energy      =      -2.0271620379919897 [Eh]
	 Correlation Energy        =      -2.7140481176781162 [Eh]
	 Total Energy              =    -652.3227504265473726 [Eh]
	 SCS Total Energy          =    -652.2702587810217665 [Eh]
  @DF-RHF Final Energy:  -649.61670644383196
    Total Energy =                       -649.6167064438320722
  @DF-RHF Final Energy:  -649.62194825243932
    Total Energy =                       -649.6219482524393243
  @DF-RHF Final Energy:  -649.62465185982308
    Total Energy =                       -649.6246518598229613
  @DF-RHF Final Energy:  -649.62565068195795
    Total Energy =                       -649.6256506819579499
  @DF-RHF Final Energy:  -649.62605315734277
    Total Energy =                       -649.6260531573427670
  @DF-RHF Final Energy:  -649.62620752611929
    Total Energy =                       -649.6262075261192876
  @DF-RHF Final Energy:  -649.62625486421450
    Total Energy =                       -649.6262548642143884
  @DF-RHF Final Energy:  -649.62627032201749
    Total Energy =                       -649.6262703220174899
  Charge       = -1
  Multiplicity = 1
  Basis Set: AUG-CC-PVTZ
    Blend: AUG-CC-PVTZ
  Basis Set: (AUG-CC-PVTZ AUX)
    Blend: AUG-CC-PVTZ-JKFIT

    Orbital Energies (a.u.)
    -----------------------

    Doubly Occupied:

       1A    -26.178519     2A    -20.330314     3A    -15.447191
       4A    -11.194626     5A    -11.163092     6A    -11.161544
       7A    -11.151700     8A    -11.146669     9A    -11.118021
      10A    -11.114707    11A    -11.112616    12A    -11.088436
      13A    -11.070181    14A    -11.068792    15A     -1.490820
      16A     -1.162475    17A     -1.144264    18A     -1.024760
      19A     -0.967364    20A     -0.919563    21A     -0.878392
      22A     -0.852558    23A     -0.746570    24A     -0.741573
      25A     -0.695530    26A     -0.676429    27A     -0.608596
      28A     -0.578673    29A     -0.567389    30A     -0.559795
      31A     -0.543772    32A     -0.526892    33A     -0.508963
      34A     -0.481349    35A     -0.477019    36A     -0.457658
      37A     -0.436057    38A     -0.433900    39A     -0.402485
      40A     -0.391942    41A     -0.388803    42A     -0.367399
      43A     -0.325335    44A     -0.309649    45A     -0.255112
      46A     -0.240001    47A     -0.237074    48A     -0.210063
      49A     -0.120340

  @DF-RHF Final Energy:  -649.62626435736843

   => Energetics <=

    Nuclear Repulsion Energy =            797.0657241460939986
    One-Electron Energy =               -2483.2340360740950018
    Two-Electron Energy =                1036.5420475706325760
    DFT Exchange-Correlation Energy =       0.0000000000000000
    Empirical Dispersion Energy =           0.0000000000000000
    PCM Polarization Energy =               0.0000000000000000
    EFP Energy =                            0.0000000000000000
    Total Energy =                       -649.6262643573684272
  Basis Set: (AUG-CC-PVTZ AUX)
    Blend: AUG-CC-PVTZ-RI
    Molecular point group: c1
  Basis Set: AUG-CC-PVTZ
    Blend: AUG-CC-PVTZ
  Basis Set: (AUG-CC-PVTZ AUX)
    Blend: AUG-CC-PVTZ-JKFIT
  Basis Set: (AUG-CC-PVTZ AUX)
    Blend: AUG-CC-PVTZ-JKFIT
	 Reference Energy          =    -649.6262643573684272 [Eh]
	 Singles Energy            =      -0.0000000000000002 [Eh]
	 Same-Spin Energy          =      -0.6847708858270557 [Eh]
	 Opposite-Spin Energy      =      -2.0250541838076006 [Eh]
	 Correlation Energy        =      -2.7098250696346562 [Eh]
	 Total Energy              =    -652.3360894270031167 [Eh]

	 ================> DF-SCS-MP2 Energies <==================
	-----------------------------------------------------------
	 SCS Same-Spin Scale       =       0.3333333333333333 [-]
	 SCS Opposite-Spin Scale   =       1.2000000000000000 [-]
	 SCS Same-Spin Energy      =      -0.2282569619423519 [Eh]
	 SCS Opposite-Spin Energy  =      -2.4300650205691205 [Eh]
	 SCS Correlation Energy    =      -2.6583219825114726 [Eh]
	 SCS Total Energy          =    -652.2845863398798656 [Eh]
	-----------------------------------------------------------

  -Total Gradient:
     Atom            X                  Y                   Z
    ------   -----------------  -----------------  -----------------
       1        0.000616120791     0.001145186330     0.000061860204
       2        0.000050021087     0.000048338588    -0.000016040538
       3       -0.000255105307    -0.001164378187     0.000514948839
       4       -0.000041951743     0.000015608822     0.000007859275
       5        0.000052711378     0.000047944212     0.000040191062
       6       -0.000026116337     0.000018396916    -0.000009431068
       7       -0.000002469119    -0.000016235150     0.000002532653
       8       -0.001061129660    -0.002326182030     0.000151081294
       9        0.000715907849     0.002323086392    -0.000718427184
      10       -0.000114174523    -0.000221620713    -0.000020095838
      11       -0.000032632465     0.000071137846    -0.000039001255
      12        0.000038694416    -0.000008384914    -0.000007486076
      13        0.000035555835     0.000091461451     0.000003842584
      14        0.000044399593    -0.000034595529     0.000016275410
      15       -0.000002785291     0.000002178783    -0.000006490074
      16       -0.000013966703     0.000008874138     0.000011735413
      17       -0.000005338834     0.000000389355    -0.000001454849
      18        0.000011972167     0.000003040481     0.000005145689
      19       -0.000009871830     0.000001347985    -0.000000092492
      20       -0.000000922800    -0.000006312598    -0.000000972832
      21        0.000001081497     0.000000717827     0.000004019771

  **** Optimization is complete! (in 10 steps) ****
    Final optimized geometry and variables:
    Molecular point group: c1

    Geometry (in Angstrom), charge = -1, multiplicity = 1:

    C           -1.345544195849     0.742103199343    -0.736579805483
    C           -2.418832942790     1.328213296750    -0.112753632480
    C            0.692632350379    -0.989922098889    -2.022271384668
    C            2.141499882773    -0.503589024999    -0.225195721805
    C           -1.466403950878     0.749023674230     2.013506010410
    C            1.778589329749    -1.516257866037    -2.696619226919
    C            3.165595529531    -1.057274253721    -0.972483035722
    C           -0.280022633880     0.137782624782    -0.040335099752
    C            0.839015086623    -0.440784940835    -0.740319694911
    C           -2.558195250011     1.366081708279     1.316952942430
    C           -0.409652524607     0.191344095574     1.350687294527
    N            3.022086753556    -1.565822019701    -2.202720109673
    O           -3.539110452299     1.894538573830     1.905673008380
    F            0.563345425085    -0.399742031816     2.115612470857
    H           -1.289420861017     0.779160306345    -1.816775158594
    H           -3.196175555810     1.798745188694    -0.698238634419
    H           -0.282219386494    -1.024039596295    -2.484779685704
    H            2.356260704260    -0.103464144724     0.751455711309
    H           -1.488898158759     0.717616173629     3.091934636585
    H            1.641786219538    -1.934994185006    -3.685785622155
    H            4.166174076698    -1.089170148968    -0.560085169199

*** Psi4 exiting successfully. Buy a developer a beer!
