                               Psi4 1.1 release

  ==> Input File <==

--------------------------------------------------------------------------

molecule phepyr {
  symmetry C1
  0 1
  C      1.885   -1.036   -0.112
  C      0.807   -0.463   0.561
  C      2.921   -1.631   0.608
  C      0.764   -0.484   1.955
  C      2.878   -1.652   2.002
  C      0.681   -0.530   4.796
  C      2.785   -1.694   4.843
  C      0.685   -0.578   6.180
  C      2.695   -1.690   6.225
  C      1.800   -1.079   2.676
  C      1.755   -1.100   4.122
  N      1.667   -1.145   6.915
  H      1.917   -1.021   -1.198
  H      -0.001   -0.002   0.000
  H      3.760   -2.079   0.084
  H      -0.084   -0.033   2.466
  H      3.693   -2.120   2.550
  H      -0.142   -0.059   4.268
  H      3.639   -2.148   4.351
  H      -0.131   -0.149   6.753
  H      3.473   -2.139   6.834
  units Angstrom
}

dih_string = "4 10 11 6 0.001"
set optking fixed_dihedral = $dih_string

optimize('MP2/aug-cc-PVTZ')
--------------------------------------------------------------------------

    Molecular point group: c1
  Charge       = 0
  Multiplicity = 1
  Basis Set: AUG-CC-PVTZ
    Blend: AUG-CC-PVTZ
  Basis Set: (AUG-CC-PVTZ AUX)
    Blend: AUG-CC-PVTZ-JKFIT
  @DF-RHF Final Energy:  -476.38918842698274
    Total Energy =                       -476.3891884269827415
  Basis Set: (AUG-CC-PVTZ AUX)
    Blend: AUG-CC-PVTZ-RI
    Molecular point group: c1
  Basis Set: AUG-CC-PVTZ
    Blend: AUG-CC-PVTZ
  Basis Set: (AUG-CC-PVTZ AUX)
    Blend: AUG-CC-PVTZ-JKFIT
  Basis Set: (AUG-CC-PVTZ AUX)
    Blend: AUG-CC-PVTZ-JKFIT
	 Reference Energy          =    -476.3891884269827415 [Eh]
	 Singles Energy            =      -0.0000000000000001 [Eh]
	 Same-Spin Energy          =      -0.5360511656347419 [Eh]
	 Opposite-Spin Energy      =      -1.6457450412133017 [Eh]
	 Correlation Energy        =      -2.1817962068480434 [Eh]
	 Total Energy              =    -478.5709846338307898 [Eh]
	 SCS Total Energy          =    -478.5427661983169401 [Eh]
  @DF-RHF Final Energy:  -476.39651078611962
    Total Energy =                       -476.3965107861196202
  @DF-RHF Final Energy:  -476.39844365595116
    Total Energy =                       -476.3984436559511551
  @DF-RHF Final Energy:  -476.39841090075544
    Total Energy =                       -476.3984109007553798
  Charge       = 0
  Multiplicity = 1
  Basis Set: AUG-CC-PVTZ
    Blend: AUG-CC-PVTZ
  Basis Set: (AUG-CC-PVTZ AUX)
    Blend: AUG-CC-PVTZ-JKFIT

    Orbital Energies (a.u.)
    -----------------------

    Doubly Occupied:

       1A    -15.561310     2A    -11.271845     3A    -11.271829
       4A    -11.269500     5A    -11.256744     6A    -11.245631
       7A    -11.245612     8A    -11.244915     9A    -11.243431
      10A    -11.242964    11A    -11.237154    12A    -11.237124
      13A     -1.259127    14A     -1.176236    15A     -1.108502
      16A     -1.038500    17A     -1.026114    18A     -1.020265
      19A     -0.883687    20A     -0.870701    21A     -0.826092
      22A     -0.811572    23A     -0.738987    24A     -0.685937
      25A     -0.674807    26A     -0.666640    27A     -0.629858
      28A     -0.621581    29A     -0.609555    30A     -0.585580
      31A     -0.584896    32A     -0.554139    33A     -0.529434
      34A     -0.516610    35A     -0.513189    36A     -0.491525
      37A     -0.418699    38A     -0.413460    39A     -0.353247
      40A     -0.345161    41A     -0.319096

  @DF-RHF Final Energy:  -476.39838373374619

   => Energetics <=

    Nuclear Repulsion Energy =            605.5870322946885835
    One-Electron Energy =               -1844.7683245781188361
    Two-Electron Energy =                 762.7829085496839525
    DFT Exchange-Correlation Energy =       0.0000000000000000
    Empirical Dispersion Energy =           0.0000000000000000
    PCM Polarization Energy =               0.0000000000000000
    EFP Energy =                            0.0000000000000000
    Total Energy =                       -476.3983837337461864
  Basis Set: (AUG-CC-PVTZ AUX)
    Blend: AUG-CC-PVTZ-RI
    Molecular point group: c1
  Basis Set: AUG-CC-PVTZ
    Blend: AUG-CC-PVTZ
  Basis Set: (AUG-CC-PVTZ AUX)
    Blend: AUG-CC-PVTZ-JKFIT
  Basis Set: (AUG-CC-PVTZ AUX)
    Blend: AUG-CC-PVTZ-JKFIT
	 Reference Energy          =    -476.3983837337461864 [Eh]
	 Singles Energy            =      -0.0000000000000002 [Eh]
	 Same-Spin Energy          =      -0.5345564784932120 [Eh]
	 Opposite-Spin Energy      =      -1.6425983778775297 [Eh]
	 Correlation Energy        =      -2.1771548563707417 [Eh]
	 Total Energy              =    -478.5755385901169348 [Eh]

	 ================> DF-SCS-MP2 Energies <==================
	-----------------------------------------------------------
	 SCS Same-Spin Scale       =       0.3333333333333333 [-]
	 SCS Opposite-Spin Scale   =       1.2000000000000000 [-]
	 SCS Same-Spin Energy      =      -0.1781854928310707 [Eh]
	 SCS Opposite-Spin Energy  =      -1.9711180534530355 [Eh]
	 SCS Correlation Energy    =      -2.1493035462841061 [Eh]
	 SCS Total Energy          =    -478.5476872800302885 [Eh]
	-----------------------------------------------------------

  -Total Gradient:
     Atom            X                  Y                   Z
    ------   -----------------  -----------------  -----------------
       1       -0.000065873968    -0.000125190536    -0.000036618113
       2        0.000049831688     0.000118407360     0.000008026576
       3        0.000079783380     0.000126913995     0.000003345755
       4       -0.000056199906    -0.000125680713     0.000009229255
       5       -0.000096229318    -0.000138802527     0.000019427730
       6        0.000041928828     0.000042268120     0.000002263422
       7       -0.000022392790     0.000000408435     0.000000593198
       8       -0.000109392178    -0.000231445487     0.000057364086
       9        0.000057363701     0.000118916223     0.000058629612
      10        0.000069802243     0.000117771135     0.000008987651
      11        0.000008814398     0.000007872170    -0.000017710353
      12        0.000014835828     0.000046381231    -0.000003915498
      13       -0.000011303086    -0.000021017240    -0.000022617123
      14       -0.000006556521     0.000044336528    -0.000013766951
      15        0.000040841155     0.000017029657    -0.000011205955
      16       -0.000054581486    -0.000002616073     0.000002715561
      17        0.000031458271    -0.000045246785     0.000010395662
      18       -0.000024268981     0.000049951673    -0.000023746819
      19        0.000042030202    -0.000021261939    -0.000030641711
      20        0.000040689529     0.000071555148    -0.000008131874
      21       -0.000030580980    -0.000050550375    -0.000012624110

  **** Optimization is complete! (in 5 steps) ****
    Final optimized geometry and variables:
    Molecular point group: c1

    Geometry (in Angstrom), charge = 0, multiplicity = 1:

    C            0.110261686940     0.054953487202    -3.570508592607
    C           -0.958572626986     0.622941613372    -2.891911942190
    C            1.135899897553    -0.534277047902    -2.844993803690
    C           -0.999554070877     0.599920778520    -1.506901576210
    C            1.090613306631    -0.555111305668    -1.460077595845
    C           -1.077348621411     0.548033189500     1.429813596045
    C            0.987700281438    -0.592571835960     1.475921413121
    C           -1.078477568914     0.503193941962     2.814341101065
    C            0.903526409380    -0.590332196291     2.858604522573
    C            0.023274905037     0.011455592575    -0.759865402179
    C           -0.022016400743    -0.010997485232     0.710135514861
    N           -0.109151316087    -0.054252810891     3.542588064657
    H            0.143703903401     0.071745684429    -4.649264785219
    H           -1.764415850704     1.085884085464    -3.441017463422
    H            1.974942131729    -0.980170888780    -3.357244236536
    H           -1.844059351399     1.049738831870    -1.011452019147
    H            1.903253738973    -1.020931638858    -0.927508551015
    H           -1.907397501097     1.022561461817     0.933285329814
    H            1.847332848064    -1.052117251833     1.017060875220
    H           -1.900256464405     0.939991743611     3.365181689891
    H            1.690540110252    -1.044069042224     3.445345081758

*** Psi4 exiting successfully. Buy a developer a beer!
