                              Psi4 1.0.0 Driver

  ==> Input File <==

--------------------------------------------------------------------------

memory 1000 mb

molecule butane {
  symmetry C1
  0 1
  H      1.604   0.760   -8.260
  H      1.745   2.388   -8.880
  H      2.043   1.024   -9.930
  C      2.142   1.395   -8.932
  H      4.169   2.051   -9.210
  H      3.731   1.788   -7.539
  C      3.631   1.416   -8.537
  H      5.189   0.020   -9.025
  H      4.242   -0.433   -7.629
  C      4.203   -0.012   -8.612
  H      3.698   -1.873   -9.558
  H      3.260   -0.461   -10.489
  H      2.313   -0.914   -9.093
  C      3.300   -0.881   -9.506
  units Angstrom
}

dih_string = "4 7 10 14 20"
set optking fixed_dihedral = $dih_string

optimize('MP2/6-31G(d)')
--------------------------------------------------------------------------

    Molecular point group: c1
  Charge       = 0
  Multiplicity = 1
  Basis Set: 6-31G(D)
  Basis Set:
  @DF-RHF Final Energy:  -157.27690073662271
    Total Energy =                       -157.2769007366227356
  Basis Set:
    Molecular point group: c1
  Basis Set: 6-31G(D)
  Basis Set:
  Basis Set:
	 Reference Energy          =    -157.2769007366227072 [Eh]
	 Singles Energy            =      -0.0000000000000000 [Eh]
	 Same-Spin Energy          =      -0.1254363534205609 [Eh]
	 Opposite-Spin Energy      =      -0.4216355044594892 [Eh]
	 Correlation Energy        =      -0.5470718578800501 [Eh]
	 Total Energy              =    -157.8239725945027487 [Eh]
	 SCS Total Energy          =    -157.8246754597809343 [Eh]
  Basis Set: 6-31G(D)
  Basis Set:
  @DF-RHF Final Energy:  -157.28578984954171
    Total Energy =                       -157.2857898495417430
  Basis Set:
  Basis Set: 6-31G(D)
  Basis Set:
  @DF-RHF Final Energy:  -157.28840906500130
    Total Energy =                       -157.2884090650014173
  @DF-RHF Final Energy:  -157.28961173469494
    Total Energy =                       -157.2896117346949154
  @DF-RHF Final Energy:  -157.29011488573403
    Total Energy =                       -157.2901148857341411
  @DF-RHF Final Energy:  -157.29018144341393
    Total Energy =                       -157.2901814434139851
  @DF-RHF Final Energy:  -157.29017777835745
    Total Energy =                       -157.2901777783575596
  @DF-RHF Final Energy:  -157.29018414403566
    Total Energy =                       -157.2901841440356066
  @DF-RHF Final Energy:  -157.29017795236561
    Total Energy =                       -157.2901779523657524
  @DF-RHF Final Energy:  -157.29023350893448
    Total Energy =                       -157.2902335089345911
  @DF-RHF Final Energy:  -157.29018242242824
    Total Energy =                       -157.2901824224282450
  @DF-RHF Final Energy:  -157.28960699206255
    Total Energy =                       -157.2896069920626871
  @DF-RHF Final Energy:  -157.28965816532929
    Total Energy =                       -157.2896581653292856
  @DF-RHF Final Energy:  -157.29014703923625
    Total Energy =                       -157.2901470392363876
  @DF-RHF Final Energy:  -157.29012381096328
    Total Energy =                       -157.2901238109629389
  @DF-RHF Final Energy:  -157.29020109274288
    Total Energy =                       -157.2902010927430467
  @DF-RHF Final Energy:  -157.29013627602535
    Total Energy =                       -157.2901362760253789
  @DF-RHF Final Energy:  -157.29012233766844
    Total Energy =                       -157.2901223376685493
  @DF-RHF Final Energy:  -157.29020594461608
    Total Energy =                       -157.2902059446163321
  @DF-RHF Final Energy:  -157.28977058067821
    Total Energy =                       -157.2897705806780948
  @DF-RHF Final Energy:  -157.29009978140343
    Total Energy =                       -157.2900997814035122
  @DF-RHF Final Energy:  -157.29005929625939
    Total Energy =                       -157.2900592962594999
  @DF-RHF Final Energy:  -157.29009424139917
    Total Energy =                       -157.2900942413992027
  @DF-RHF Final Energy:  -157.29010568373621
    Total Energy =                       -157.2901056837364706
  @DF-RHF Final Energy:  -157.29011417681005
    Total Energy =                       -157.2901141768101070
  @DF-RHF Final Energy:  -157.28939653955857
    Total Energy =                       -157.2893965395584530
  @DF-RHF Final Energy:  -157.28932691312977
    Total Energy =                       -157.2893269131299689
  @DF-RHF Final Energy:  -157.29001439698220
    Total Energy =                       -157.2900143969822011
  @DF-RHF Final Energy:  -157.29001895284748
    Total Energy =                       -157.2900189528474471
  @DF-RHF Final Energy:  -157.29008482299341
    Total Energy =                       -157.2900848229934070
  @DF-RHF Final Energy:  -157.29007888200306
    Total Energy =                       -157.2900788820031437
  @DF-RHF Final Energy:  -157.29009494311546
    Total Energy =                       -157.2900949431155198
  @DF-RHF Final Energy:  -157.29008710099973
    Total Energy =                       -157.2900871009995285
  @DF-RHF Final Energy:  -157.29008955503048
    Total Energy =                       -157.2900895550304483
  @DF-RHF Final Energy:  -157.28976416074653
    Total Energy =                       -157.2897641607465857
  @DF-RHF Final Energy:  -157.29008998010559
    Total Energy =                       -157.2900899801056198
  @DF-RHF Final Energy:  -157.29006501324488
    Total Energy =                       -157.2900650132449982
  @DF-RHF Final Energy:  -157.29007283928081
    Total Energy =                       -157.2900728392809810
  @DF-RHF Final Energy:  -157.29007062385961
    Total Energy =                       -157.2900706238596342
	 Singles Energy            =      -0.0000000000000000 [Eh]
	 Same-Spin Energy          =      -0.1244139094084351 [Eh]
	 Opposite-Spin Energy      =      -0.4226910303790231 [Eh]
	 Correlation Energy        =      -0.5471049397874582 [Eh]
	 Total Energy              =    -157.8371755636470652 [Eh]
	 SCS Total Energy          =    -157.8387711634505877 [Eh]
  Charge       = 0
  Multiplicity = 1
  Basis Set: 6-31G(D)
  Basis Set:

    Orbital Energies (a.u.)
    -----------------------

    Doubly Occupied:

       1A    -11.216398     2A    -11.215837     3A    -11.209884
       4A    -11.209853     5A     -1.066312     6A     -0.973773
       7A     -0.876816     8A     -0.767800     9A     -0.631686
      10A     -0.614069    11A     -0.565884    12A     -0.537784
      13A     -0.524724    14A     -0.508986    15A     -0.463158
      16A     -0.458042    17A     -0.444725

  @DF-RHF Final Energy:  -157.29006913635911

   => Energetics <=

    Nuclear Repulsion Energy =            132.7928630813932784
    One-Electron Energy =                -473.5944028240432431
    Two-Electron Energy =                 183.5114706062908851
    DFT Exchange-Correlation Energy =       0.0000000000000000
    Empirical Dispersion Energy =           0.0000000000000000
    PCM Polarization Energy =               0.0000000000000000
    EFP Energy =                            0.0000000000000000
    Total Energy =                       -157.2900691363591079
  Basis Set:
    Molecular point group: c1
  Basis Set: 6-31G(D)
  Basis Set:
  Basis Set:
	 Reference Energy          =    -157.2900691363591079 [Eh]
	 Singles Energy            =      -0.0000000000000000 [Eh]
	 Same-Spin Energy          =      -0.1244075069045979 [Eh]
	 Opposite-Spin Energy      =      -0.4226954947163643 [Eh]
	 Correlation Energy        =      -0.5471030016209621 [Eh]
	 Total Energy              =    -157.8371721379800761 [Eh]

	 ================> DF-SCS-MP2 Energies <==================
	-----------------------------------------------------------
	 SCS Same-Spin Scale       =       0.3333333333333333 [-]
	 SCS Opposite-Spin Scale   =       1.2000000000000000 [-]
	 SCS Same-Spin Energy      =      -0.0414691689681993 [Eh]
	 SCS Opposite-Spin Energy  =      -0.5072345936596371 [Eh]
	 SCS Correlation Energy    =      -0.5487037626278364 [Eh]
	 SCS Total Energy          =    -157.8387728989869458 [Eh]
	-----------------------------------------------------------

  -Total Gradient:
     Atom            X                  Y                   Z
    ------   -----------------  -----------------  -----------------
       1        0.000035274140    -0.000082403878     0.000043539431
       2       -0.000124255863     0.000438428519    -0.000009051644
       3       -0.000170293324     0.000218236726     0.000162568268
       4        0.000773064178     0.000597992195    -0.004779389526
       5        0.000118003861     0.000295671186    -0.000156547188
       6        0.000255108363     0.000056893496     0.000103072831
       7       -0.002239581929    -0.002589407839     0.007922745980
       8        0.000148224613     0.000308980090     0.000140654584
       9        0.000015653886    -0.000117506445     0.000030974362
      10        0.003837103295     0.002826570457    -0.006838389215
      11        0.000132426010    -0.000434076437     0.000116092444
      12        0.000001629220     0.000184108314    -0.000141652544
      13       -0.000059064225    -0.000089389507    -0.000073349989
      14       -0.002723292223    -0.001614096877     0.003478732204

    Molecular point group: c1

    Geometry (in Angstrom), charge = 0, multiplicity = 1:

    H           -1.851283544207     0.425465089190     0.620288401842
    H           -1.521644954325     2.099006631428     0.166824985856
    H           -1.353688690003     0.814353712388    -1.030468366562
    C           -1.196199199579     1.064435566970     0.020317457696
    H            0.849732702658     1.607057010348    -0.199633097107
    H            0.406979568376     1.255109502567     1.452245858768
    C            0.270366238660     0.912590379697     0.421144920474
    H            1.915862416281    -0.420876855954    -0.036704333571
    H            0.889094241654    -0.981265634467     1.259564539988
    C            0.868604180005    -0.503258465946     0.272539261762
    H            0.627675889204    -2.421617708198    -0.699066906544
    H            0.098235362436    -1.062813226881    -1.695221302062
    H           -0.901118610188    -1.614187257774    -0.345481269610
    C            0.127789602810    -1.448591277610    -0.671366316750

*** Psi4 exiting successfully. Buy a developer a beer!
