                              Psi4 1.0.0 Driver

  ==> Input File <==

--------------------------------------------------------------------------

memory 1000 mb

molecule butane {
  symmetry C1
  0 1
  H      1.604   0.760   -8.260
  H      1.745   2.388   -8.880
  H      2.043   1.024   -9.930
  C      2.142   1.395   -8.932
  H      4.169   2.051   -9.210
  H      3.731   1.788   -7.539
  C      3.631   1.416   -8.537
  H      5.189   0.020   -9.025
  H      4.242   -0.433   -7.629
  C      4.203   -0.012   -8.612
  H      3.698   -1.873   -9.558
  H      3.260   -0.461   -10.489
  H      2.313   -0.914   -9.093
  C      3.300   -0.881   -9.506
  units Angstrom
}

dih_string = "4 7 10 14 20"
set optking fixed_dihedral = $dih_string

optimize('MP2/6-31G(d)')
--------------------------------------------------------------------------

    Molecular point group: c1
  Charge       = 0
  Multiplicity = 1
  Basis Set: 6-31G(D)
  Basis Set:
  @DF-RHF Final Energy:  -157.27690073662265
    Total Energy =                       -157.2769007366226788
  Basis Set:
    Molecular point group: c1
  Basis Set: 6-31G(D)
  Basis Set:
  Basis Set:
	 Reference Energy          =    -157.2769007366226504 [Eh]
	 Singles Energy            =      -0.0000000000000000 [Eh]
	 Same-Spin Energy          =      -0.1254363534205614 [Eh]
	 Opposite-Spin Energy      =      -0.4216355044594841 [Eh]
	 Correlation Energy        =      -0.5470718578800455 [Eh]
	 Total Energy              =    -157.8239725945026919 [Eh]
	 SCS Total Energy          =    -157.8246754597808774 [Eh]
  Basis Set: 6-31G(D)
  Basis Set:
  @DF-RHF Final Energy:  -157.28578984948967
    Total Energy =                       -157.2857898494897597
  Basis Set:
  Basis Set: 6-31G(D)
  Basis Set:
  @DF-RHF Final Energy:  -157.28840906523195
    Total Energy =                       -157.2884090652321163
  @DF-RHF Final Energy:  -157.28961173486078
    Total Energy =                       -157.2896117348607845
  @DF-RHF Final Energy:  -157.29011488558226
    Total Energy =                       -157.2901148855819997
  @DF-RHF Final Energy:  -157.29018144349146
    Total Energy =                       -157.2901814434916332
  @DF-RHF Final Energy:  -157.29017777828753
    Total Energy =                       -157.2901777782874717
  @DF-RHF Final Energy:  -157.29018414404501
    Total Energy =                       -157.2901841440449857
  @DF-RHF Final Energy:  -157.29017795320135
    Total Energy =                       -157.2901779532013222
  @DF-RHF Final Energy:  -157.29023355602976
    Total Energy =                       -157.2902335560295342
  @DF-RHF Final Energy:  -157.29018247304739
    Total Energy =                       -157.2901824730473663
  @DF-RHF Final Energy:  -157.29000010655500
    Total Energy =                       -157.2900001065551407
  @DF-RHF Final Energy:  -157.28973272493127
    Total Energy =                       -157.2897327249313264
  @DF-RHF Final Energy:  -157.29029304865486
    Total Energy =                       -157.2902930486550872
  @DF-RHF Final Energy:  -157.29005431850410
    Total Energy =                       -157.2900543185040760
  @DF-RHF Final Energy:  -157.29009770159831
    Total Energy =                       -157.2900977015984552
  @DF-RHF Final Energy:  -157.29009233815370
    Total Energy =                       -157.2900923381536131
  @DF-RHF Final Energy:  -157.29009410473302
    Total Energy =                       -157.2900941047330434
  @DF-RHF Final Energy:  -157.29011967223965
    Total Energy =                       -157.2901196722396833
  **** Optimization is complete! (in 19 steps) ****
    Final optimized geometry and variables:
  @DF-RHF Final Energy:  -157.29001758148846
    Total Energy =                       -157.2900175814887689
  @DF-RHF Final Energy:  -157.29001054273203
    Total Energy =                       -157.2900105427320341
  @DF-RHF Final Energy:  -157.29010105367152
    Total Energy =                       -157.2901010536714637
  @DF-RHF Final Energy:  -157.29013210784706
    Total Energy =                       -157.2901321078469437
	 Singles Energy            =      -0.0000000000000000 [Eh]
	 Same-Spin Energy          =      -0.1244379039259195 [Eh]
	 Opposite-Spin Energy      =      -0.4226505933750265 [Eh]
	 Correlation Energy        =      -0.5470884973009460 [Eh]
	 Total Energy              =    -157.8372206051479907 [Eh]
	 SCS Total Energy          =    -157.8387921212057279 [Eh]
  Charge       = 0
  Multiplicity = 1
  Basis Set: 6-31G(D)
  Basis Set:

    Orbital Energies (a.u.)
    -----------------------

    Doubly Occupied:

       1A    -11.216176     2A    -11.215628     3A    -11.209681
       4A    -11.209669     5A     -1.066707     6A     -0.974027
       7A     -0.876751     8A     -0.767847     9A     -0.631823
      10A     -0.614714    11A     -0.566104    12A     -0.537693
      13A     -0.524863    14A     -0.508868    15A     -0.463202
      16A     -0.458285    17A     -0.444689

  @DF-RHF Final Energy:  -157.29011123683358

   => Energetics <=

    Nuclear Repulsion Energy =            132.8732035193876300
    One-Electron Energy =                -473.7531759720246214
    Two-Electron Energy =                 183.5898612158034950
    DFT Exchange-Correlation Energy =       0.0000000000000000
    Empirical Dispersion Energy =           0.0000000000000000
    PCM Polarization Energy =               0.0000000000000000
    EFP Energy =                            0.0000000000000000
    Total Energy =                       -157.2901112368334964
  Basis Set:
    Molecular point group: c1
  Basis Set: 6-31G(D)
  Basis Set:
  Basis Set:
	 Reference Energy          =    -157.2901112368335816 [Eh]
	 Singles Energy            =      -0.0000000000000000 [Eh]
	 Same-Spin Energy          =      -0.1244415802213599 [Eh]
	 Opposite-Spin Energy      =      -0.4226747181109807 [Eh]
	 Correlation Energy        =      -0.5471162983323405 [Eh]
	 Total Energy              =    -157.8372275351659084 [Eh]

	 ================> DF-SCS-MP2 Energies <==================
	-----------------------------------------------------------
	 SCS Same-Spin Scale       =       0.3333333333333333 [-]
	 SCS Opposite-Spin Scale   =       1.2000000000000000 [-]
	 SCS Same-Spin Energy      =      -0.0414805267404533 [Eh]
	 SCS Opposite-Spin Energy  =      -0.5072096617331768 [Eh]
	 SCS Correlation Energy    =      -0.5486901884736302 [Eh]
	 SCS Total Energy          =    -157.8388014253072242 [Eh]
	-----------------------------------------------------------

  -Total Gradient:
     Atom            X                  Y                   Z
    ------   -----------------  -----------------  -----------------
       1        0.000012911129    -0.000063825924     0.000041938596
       2        0.000154682693    -0.000071213756     0.000025402639
       3        0.000143757820    -0.000082824545    -0.000068790414
       4        0.001071846116     0.001185867715    -0.004360816286
       5       -0.000154925187     0.000016199853    -0.000126186494
       6        0.000132901633     0.000046531197    -0.000259649467
       7       -0.003070723248    -0.002159313450     0.008305880834
       8       -0.000186392037     0.000025367427     0.000203733981
       9       -0.000137132536    -0.000140470541    -0.000074549542
      10        0.004597474351     0.002649561795    -0.007322360647
      11        0.000016652173     0.000128950668     0.000109851083
      12        0.000025180902     0.000070773202    -0.000086619264
      13       -0.000065277413     0.000137650573     0.000097175444
      14       -0.002540956397    -0.001743254213     0.003514989535

    Final optimized geometry and variables:
    Molecular point group: c1

    Geometry (in Angstrom), charge = 0, multiplicity = 1:

    H           -1.848656634295     0.437523342277     0.628336732136
    H           -1.521437924467     2.097618465582     0.127414772196
    H           -1.358199658773     0.779617998610    -1.035222633941
    C           -1.197299285139     1.060192578684     0.007578010918
    H            0.843113999908     1.600565790447    -0.241405493725
    H            0.415676335353     1.288704177192     1.422269018008
    C            0.271193836494     0.920778318478     0.401710056824
    H            1.917170859225    -0.422131822811    -0.033462501063
    H            0.890783353799    -0.957533245929     1.273697566332
    C            0.870894208192    -0.497036494217     0.278586414977
    H            0.624632695886    -2.430845727919    -0.656324148768
    H            0.094537642359    -1.091975789320    -1.676456069197
    H           -0.901919014049    -1.614159714091    -0.312873355645
    C            0.126119991009    -1.457679172920    -0.645543638204

*** Psi4 exiting successfully. Buy a developer a beer!
