                               Psi4 1.1 release

  ==> Input File <==

--------------------------------------------------------------------------

memory 5000 mb

molecule butane {
  symmetry C1
  0 1
  H      2.051   1.542   -9.988
  H      1.715   0.450   -8.665
  H      1.625   2.177   -8.417
  C      2.142   1.395   -8.932
  H      4.169   2.051   -9.210
  H      3.731   1.788   -7.539
  C      3.631   1.416   -8.537
  H      3.665   -0.647   -7.940
  H      4.104   -0.384   -9.610
  C      4.203   -0.012   -8.612
  H      6.088   -0.983   -8.270
  H      5.791   0.381   -7.220
  H      6.230   0.644   -8.890
  C      5.691   0.009   -8.218
  units Angstrom
}

dih_string = "10 7 4 3 150"
set optking fixed_dihedral = $dih_string

optimize('MP2/aug-cc-pvtz')
--------------------------------------------------------------------------

    Molecular point group: c1
  Charge       = 0
  Multiplicity = 1
  Basis Set: AUG-CC-PVTZ
    Blend: AUG-CC-PVTZ
  Basis Set: (AUG-CC-PVTZ AUX)
    Blend: AUG-CC-PVTZ-JKFIT
  @DF-RHF Final Energy:  -157.35004207773613
    Total Energy =                       -157.3500420777361342
  Basis Set: (AUG-CC-PVTZ AUX)
    Blend: AUG-CC-PVTZ-RI
    Molecular point group: c1
  Basis Set: AUG-CC-PVTZ
    Blend: AUG-CC-PVTZ
  Basis Set: (AUG-CC-PVTZ AUX)
    Blend: AUG-CC-PVTZ-JKFIT
  Basis Set: (AUG-CC-PVTZ AUX)
    Blend: AUG-CC-PVTZ-JKFIT
	 Reference Energy          =    -157.3500420777361342 [Eh]
	 Singles Energy            =      -0.0000000000000000 [Eh]
	 Same-Spin Energy          =      -0.1654315868826306 [Eh]
	 Opposite-Spin Energy      =      -0.6391171280724048 [Eh]
	 Correlation Energy        =      -0.8045487149550354 [Eh]
	 Total Energy              =    -158.1545907926911809 [Eh]
	 SCS Total Energy          =    -158.1721264937172293 [Eh]
  @DF-RHF Final Energy:  -157.35278497782440
    Total Energy =                       -157.3527849778243990
  @DF-RHF Final Energy:  -157.35364592621977
    Total Energy =                       -157.3536459262197695
  @DF-RHF Final Energy:  -157.35396694525383
    Total Energy =                       -157.3539669452538305
  @DF-RHF Final Energy:  -157.35401056615052
    Total Energy =                       -157.3540105661505208
  @DF-RHF Final Energy:  -157.35401554265977
    Total Energy =                       -157.3540155426597664
  Charge       = 0
  Multiplicity = 1
  Basis Set: AUG-CC-PVTZ
    Blend: AUG-CC-PVTZ
  Basis Set: (AUG-CC-PVTZ AUX)
    Blend: AUG-CC-PVTZ-JKFIT

    Orbital Energies (a.u.)
    -----------------------

    Doubly Occupied:

       1A    -11.211531     2A    -11.210834     3A    -11.205966
       4A    -11.205783     5A     -1.073683     6A     -0.981363
       7A     -0.861415     8A     -0.788476     9A     -0.640245
      10A     -0.584314    11A     -0.577246    12A     -0.569538
      13A     -0.512262    14A     -0.496158    15A     -0.470303
      16A     -0.459856    17A     -0.455556

  @DF-RHF Final Energy:  -157.35401432444493

   => Energetics <=

    Nuclear Repulsion Energy =            131.4388517307469328
    One-Electron Energy =                -470.9766774158139810
    Two-Electron Energy =                 182.1838113606221157
    DFT Exchange-Correlation Energy =       0.0000000000000000
    Empirical Dispersion Energy =           0.0000000000000000
    PCM Polarization Energy =               0.0000000000000000
    EFP Energy =                            0.0000000000000000
    Total Energy =                       -157.3540143244449325
  Basis Set: (AUG-CC-PVTZ AUX)
    Blend: AUG-CC-PVTZ-RI
    Molecular point group: c1
  Basis Set: AUG-CC-PVTZ
    Blend: AUG-CC-PVTZ
  Basis Set: (AUG-CC-PVTZ AUX)
    Blend: AUG-CC-PVTZ-JKFIT
  Basis Set: (AUG-CC-PVTZ AUX)
    Blend: AUG-CC-PVTZ-JKFIT
	 Reference Energy          =    -157.3540143244449325 [Eh]
	 Singles Energy            =      -0.0000000000000000 [Eh]
	 Same-Spin Energy          =      -0.1654677937043333 [Eh]
	 Opposite-Spin Energy      =      -0.6395243190537337 [Eh]
	 Correlation Energy        =      -0.8049921127580670 [Eh]
	 Total Energy              =    -158.1590064372030042 [Eh]

	 ================> DF-SCS-MP2 Energies <==================
	-----------------------------------------------------------
	 SCS Same-Spin Scale       =       0.3333333333333333 [-]
	 SCS Opposite-Spin Scale   =       1.2000000000000000 [-]
	 SCS Same-Spin Energy      =      -0.0551559312347778 [Eh]
	 SCS Opposite-Spin Energy  =      -0.7674291828644805 [Eh]
	 SCS Correlation Energy    =      -0.8225851140992583 [Eh]
	 SCS Total Energy          =    -158.1765994385442013 [Eh]
	-----------------------------------------------------------

  -Total Gradient:
     Atom            X                  Y                   Z
    ------   -----------------  -----------------  -----------------
       1       -0.000007470526     0.000015639996    -0.000010975960
       2       -0.000000541728     0.000012783708    -0.000011001407
       3       -0.000729789547    -0.002110774156     0.002519977632
       4        0.000688907869     0.002489212650    -0.002289827504
       5       -0.000008246354     0.000024537702     0.000000505188
       6        0.000022895689    -0.000024030890    -0.000006665628
       7        0.000699819351    -0.000017838145    -0.002567741955
       8       -0.000005554689    -0.000016442306    -0.000004085122
       9       -0.000002247656     0.000004206257     0.000005233142
      10       -0.000642675255    -0.000388782785     0.002392600698
      11        0.000002540581     0.000001772028    -0.000007358533
      12       -0.000002735031    -0.000000435542    -0.000002013762
      13        0.000018613399     0.000005503277     0.000002072445
      14       -0.000033516104     0.000004648204    -0.000020719234

  **** Optimization is complete! (in 7 steps) ****
    Final optimized geometry and variables:
    Molecular point group: c1

    Geometry (in Angstrom), charge = 0, multiplicity = 1:

    H           -1.888893871921     0.832328188863    -1.440237719927
    H           -2.250911028799    -0.225848312591    -0.088418443502
    H           -2.322927375488     1.503103656247     0.137000279463
    C           -1.772321148544     0.712472900008    -0.366355574751
    H            0.272162471019     1.372641106625    -0.583860038021
    H           -0.204154300865     1.059274904838     1.065239267002
    C           -0.304829079072     0.692145853737     0.042919114258
    H           -0.249518965464    -1.349991530883     0.655212853765
    H            0.166983979638    -1.103513781037    -1.024738512865
    C            0.302946623387    -0.696406945078    -0.021064000618
    H            2.191004159474    -1.710791601029     0.307256679743
    H            1.925639256825    -0.315498116347     1.346871598826
    H            2.345890332917    -0.083071996763    -0.344160729369
    C            1.775440318308    -0.706417251724     0.341967021190

*** Psi4 exiting successfully. Buy a developer a beer!
