                               Psi4 1.1 release

  ==> Input File <==

--------------------------------------------------------------------------

memory 1000 mb

molecule butane {
  symmetry C1
  0 1
  H      1.604   0.760   -8.260
  H      1.745   2.388   -8.880
  H      2.043   1.024   -9.930
  C      2.142   1.395   -8.932
  H      4.169   2.051   -9.210
  H      3.731   1.788   -7.539
  C      3.631   1.416   -8.537
  H      3.665   -0.647   -7.940
  H      4.104   -0.384   -9.610
  C      4.203   -0.012   -8.612
  H      5.783   -0.138   -7.162
  H      6.118   0.953   -8.485
  H      6.208   -0.774   -8.733
  C      5.691   0.009   -8.218
  units Angstrom
}

dih_string = "7 10 14 13 210"
set optking fixed_dihedral = $dih_string

optimize('MP2/aug-cc-pvtz')
--------------------------------------------------------------------------

    Molecular point group: c1
  Charge       = 0
  Multiplicity = 1
  Basis Set: AUG-CC-PVTZ
    Blend: AUG-CC-PVTZ
  Basis Set: (AUG-CC-PVTZ AUX)
    Blend: AUG-CC-PVTZ-JKFIT
  @DF-RHF Final Energy:  -157.35002568127089
    Total Energy =                       -157.3500256812708926
  Basis Set: (AUG-CC-PVTZ AUX)
    Blend: AUG-CC-PVTZ-RI
    Molecular point group: c1
  Basis Set: AUG-CC-PVTZ
    Blend: AUG-CC-PVTZ
  Basis Set: (AUG-CC-PVTZ AUX)
    Blend: AUG-CC-PVTZ-JKFIT
  Basis Set: (AUG-CC-PVTZ AUX)
    Blend: AUG-CC-PVTZ-JKFIT
	 Reference Energy          =    -157.3500256812708926 [Eh]
	 Singles Energy            =      -0.0000000000000000 [Eh]
	 Same-Spin Energy          =      -0.1654319262190453 [Eh]
	 Opposite-Spin Energy      =      -0.6391182814395445 [Eh]
	 Correlation Energy        =      -0.8045502076585899 [Eh]
	 Total Energy              =    -158.1545758889294859 [Eh]
	 SCS Total Energy          =    -158.1721115944046971 [Eh]
  @DF-RHF Final Energy:  -157.35277881586285
    Total Energy =                       -157.3527788158628482
  @DF-RHF Final Energy:  -157.35364659686124
    Total Energy =                       -157.3536465968612390
  @DF-RHF Final Energy:  -157.35396848621394
    Total Energy =                       -157.3539684862139438
  @DF-RHF Final Energy:  -157.35401083347949
    Total Energy =                       -157.3540108334794922
  @DF-RHF Final Energy:  -157.35401536862344
    Total Energy =                       -157.3540153686234362
  Charge       = 0
  Multiplicity = 1
  Basis Set: AUG-CC-PVTZ
    Blend: AUG-CC-PVTZ
  Basis Set: (AUG-CC-PVTZ AUX)
    Blend: AUG-CC-PVTZ-JKFIT

    Orbital Energies (a.u.)
    -----------------------

    Doubly Occupied:

       1A    -11.211530     2A    -11.210833     3A    -11.205965
       4A    -11.205782     5A     -1.073689     6A     -0.981368
       7A     -0.861416     8A     -0.788478     9A     -0.640236
      10A     -0.584322    11A     -0.577252    12A     -0.569529
      13A     -0.512276    14A     -0.496148    15A     -0.470327
      16A     -0.459852    17A     -0.455537

  @DF-RHF Final Energy:  -157.35401398604381

   => Energetics <=

    Nuclear Repulsion Energy =            131.4395288764543182
    One-Electron Energy =                -470.9780041129971551
    Two-Electron Energy =                 182.1844612504989982
    DFT Exchange-Correlation Energy =       0.0000000000000000
    Empirical Dispersion Energy =           0.0000000000000000
    PCM Polarization Energy =               0.0000000000000000
    EFP Energy =                            0.0000000000000000
    Total Energy =                       -157.3540139860438103
  Basis Set: (AUG-CC-PVTZ AUX)
    Blend: AUG-CC-PVTZ-RI
    Molecular point group: c1
  Basis Set: AUG-CC-PVTZ
    Blend: AUG-CC-PVTZ
  Basis Set: (AUG-CC-PVTZ AUX)
    Blend: AUG-CC-PVTZ-JKFIT
  Basis Set: (AUG-CC-PVTZ AUX)
    Blend: AUG-CC-PVTZ-JKFIT
	 Reference Energy          =    -157.3540139860438103 [Eh]
	 Singles Energy            =      -0.0000000000000001 [Eh]
	 Same-Spin Energy          =      -0.1654679493100256 [Eh]
	 Opposite-Spin Energy      =      -0.6395241171773717 [Eh]
	 Correlation Energy        =      -0.8049920664873973 [Eh]
	 Total Energy              =    -158.1590060525311969 [Eh]

	 ================> DF-SCS-MP2 Energies <==================
	-----------------------------------------------------------
	 SCS Same-Spin Scale       =       0.3333333333333333 [-]
	 SCS Opposite-Spin Scale   =       1.2000000000000000 [-]
	 SCS Same-Spin Energy      =      -0.0551559831033419 [Eh]
	 SCS Opposite-Spin Energy  =      -0.7674289406128459 [Eh]
	 SCS Correlation Energy    =      -0.8225849237161877 [Eh]
	 SCS Total Energy          =    -158.1765989097600027 [Eh]
	-----------------------------------------------------------

  -Total Gradient:
     Atom            X                  Y                   Z
    ------   -----------------  -----------------  -----------------
       1       -0.000028937295    -0.000009508097    -0.000003372837
       2       -0.000003780663    -0.000001738280     0.000011152560
       3        0.000000507243    -0.000000723744     0.000000173454
       4        0.000060822787    -0.000006745442     0.000032739702
       5        0.000007120055     0.000028200288     0.000007507992
       6        0.000008358288    -0.000004280193    -0.000008004436
       7        0.000640405935     0.000384913464    -0.002449898769
       8        0.000012876301    -0.000055414610    -0.000012690688
       9       -0.000030894425     0.000044084281     0.000009616305
      10       -0.000711675519     0.000013307227     0.002640150979
      11        0.000002760918    -0.000023183473     0.000012626392
      12        0.000015184238    -0.000016112593     0.000021243955
      13        0.000729738852     0.002103423658    -0.002511284793
      14       -0.000702486713    -0.002456222485     0.002250040185

  **** Optimization is complete! (in 7 steps) ****
    Final optimized geometry and variables:
    Molecular point group: c1

    Geometry (in Angstrom), charge = 0, multiplicity = 1:

    H           -2.345795805688     0.083420125168     0.343806832104
    H           -2.190599536013     1.711318156991    -0.307051034999
    H           -1.925506257977     0.316318563186    -1.347129715181
    C           -1.775191943766     0.706887830042    -0.342099523122
    H            0.249934099932     1.349948090719    -0.655391405546
    H           -0.166637397898     1.103695778959     1.024522661328
    C           -0.302727988386     0.696522514557     0.020886999168
    H           -0.272643128084    -1.372886118604     0.583340081386
    H            0.204191186533    -1.058914112183    -1.065427729239
    C            0.304661500114    -0.692188352437    -0.042943221377
    H            1.888159116573    -0.833231236591     1.440581732329
    H            2.251148409811     0.225190608233     0.089229959082
    H            2.322490443617    -1.503776019214    -0.136589015771
    C            1.772020391986    -0.712992727026     0.366684347641

*** Psi4 exiting successfully. Buy a developer a beer!
