                               Psi4 1.1 release

  ==> Input File <==

--------------------------------------------------------------------------

memory 5 Gb

molecule phepyrFOH_zwitterion {
  symmetry C1
  0 1
  C      1.885   -1.036   -0.112
  C      0.807   -0.463   0.561
  C      3.823   -3.268   -0.989
  C      5.329   -1.752   0.122
  C      1.800   -1.079   2.676
  C      4.913   -3.818   -1.649
  C      6.381   -2.340   -0.565
  C      2.921   -1.631   0.608
  C      4.038   -2.224   -0.095
  C      0.764   -0.484   1.955
  C      2.878   -1.652   2.002
  N      6.145   -3.344   -1.421
  O      -0.227   0.043   2.574
  F      3.866   -2.220   2.709
  H      1.904   -1.013   -1.200
  H      0.011   -0.007   -0.025
  H      2.827   -3.657   -1.178
  H      5.526   -0.938   0.815
  H      1.791   -1.109   3.764
  H      4.840   -4.630   -2.360
  H      7.413   -2.039   -0.460
  H      6.932   -3.763   -1.915
  units Angstrom
}

dih_string = "1 8 9 3 300"
set optking fixed_dihedral = $dih_string

optimize('MP2/aug-cc-PVTZ')
--------------------------------------------------------------------------

    Molecular point group: c1
  Charge       = 0
  Multiplicity = 1
  Basis Set: AUG-CC-PVTZ
    Blend: AUG-CC-PVTZ
  Basis Set: (AUG-CC-PVTZ AUX)
    Blend: AUG-CC-PVTZ-JKFIT
  @DF-RHF Final Energy:  -650.09320444783953
    Total Energy =                       -650.0932044478395255
  Basis Set: (AUG-CC-PVTZ AUX)
    Blend: AUG-CC-PVTZ-RI
    Molecular point group: c1
  Basis Set: AUG-CC-PVTZ
    Blend: AUG-CC-PVTZ
  Basis Set: (AUG-CC-PVTZ AUX)
    Blend: AUG-CC-PVTZ-JKFIT
  Basis Set: (AUG-CC-PVTZ AUX)
    Blend: AUG-CC-PVTZ-JKFIT
	 Reference Energy          =    -650.0932044478395255 [Eh]
	 Singles Energy            =      -0.0000000000000005 [Eh]
	 Same-Spin Energy          =      -0.6786534611286453 [Eh]
	 Opposite-Spin Energy      =      -2.0244779011298446 [Eh]
	 Correlation Energy        =      -2.7031313622584903 [Eh]
	 Total Energy              =    -652.7963358100980713 [Eh]
	 SCS Total Energy          =    -652.7487957495715136 [Eh]
  @DF-RHF Final Energy:  -650.10207462789947
    Total Energy =                       -650.1020746278993556
  @DF-RHF Final Energy:  -650.10864914988031
    Total Energy =                       -650.1086491498801934
  @DF-RHF Final Energy:  -650.11280374195940
    Total Energy =                       -650.1128037419593966
  @DF-RHF Final Energy:  -650.11524005354875
    Total Energy =                       -650.1152400535486322
  @DF-RHF Final Energy:  -650.11692282615979
    Total Energy =                       -650.1169228261599073
  @DF-RHF Final Energy:  -650.11717132655576
    Total Energy =                       -650.1171713265557628
  @DF-RHF Final Energy:  -650.11843514427869
    Total Energy =                       -650.1184351442786920
  @DF-RHF Final Energy:  -650.11865865419293
    Total Energy =                       -650.1186586541930410
  @DF-RHF Final Energy:  -650.11934719988460
    Total Energy =                       -650.1193471998847144
  @DF-RHF Final Energy:  -650.12023054522513
    Total Energy =                       -650.1202305452252403
  @DF-RHF Final Energy:  -650.12108626759914
    Total Energy =                       -650.1210862675991393
  @DF-RHF Final Energy:  -650.12191358385701
    Total Energy =                       -650.1219135838571219
  @DF-RHF Final Energy:  -650.11869698489602
    Total Energy =                       -650.1186969848961326
  @DF-RHF Final Energy:  -650.12048951735210
    Total Energy =                       -650.1204895173520981
  @DF-RHF Final Energy:  -650.12073092330934
    Total Energy =                       -650.1207309233093383
  @DF-RHF Final Energy:  -650.12128356698986
    Total Energy =                       -650.1212835669898595
  @DF-RHF Final Energy:  -650.11980693235159
    Total Energy =                       -650.1198069323515938
  @DF-RHF Final Energy:  -650.12081196902739
    Total Energy =                       -650.1208119690274998
  @DF-RHF Final Energy:  -650.12168849800298
    Total Energy =                       -650.1216884980030954
  @DF-RHF Final Energy:  -650.12195372777103
    Total Energy =                       -650.1219537277709151
  @DF-RHF Final Energy:  -650.12208487357771
    Total Energy =                       -650.1220848735777054
  @DF-RHF Final Energy:  -650.12225972544024
    Total Energy =                       -650.1222597254402444
  @DF-RHF Final Energy:  -650.12235188421141
    Total Energy =                       -650.1223518842114117
    Molecular point group: c1
  Charge       = 0
  Multiplicity = 1
  Basis Set: AUG-CC-PVTZ
    Blend: AUG-CC-PVTZ
  Basis Set: (AUG-CC-PVTZ AUX)
    Blend: AUG-CC-PVTZ-JKFIT

    Orbital Energies (a.u.)
    -----------------------

    Doubly Occupied:

       1A    -26.301037     2A    -20.468849     3A    -15.684721
       4A    -11.346518     5A    -11.345440     6A    -11.320348
       7A    -11.312607     8A    -11.277859     9A    -11.277770
      10A    -11.273709    11A    -11.241536    12A    -11.223688
      13A    -11.197747    14A    -11.195476    15A     -1.616350
      16A     -1.364814    17A     -1.305577    18A     -1.175712
      19A     -1.114960    20A     -1.103997    21A     -1.012460
      22A     -1.002315    23A     -0.922482    24A     -0.905751
      25A     -0.828420    26A     -0.825619    27A     -0.808544
      28A     -0.740608    29A     -0.725684    30A     -0.704875
      31A     -0.691104    32A     -0.679906    33A     -0.671218
      34A     -0.661094    35A     -0.638596    36A     -0.618958
      37A     -0.610008    38A     -0.588569    39A     -0.563298
      40A     -0.560915    41A     -0.523237    42A     -0.519884
      43A     -0.498025    44A     -0.468772    45A     -0.417491
      46A     -0.402928    47A     -0.368786    48A     -0.340748
      49A     -0.250309

  @DF-RHF Final Energy:  -650.12203028991973

   => Energetics <=

    Nuclear Repulsion Energy =            815.6774747251705548
    One-Electron Energy =               -2506.2003743227905943
    Two-Electron Energy =                1040.4008693077003045
    DFT Exchange-Correlation Energy =       0.0000000000000000
    Empirical Dispersion Energy =           0.0000000000000000
    PCM Polarization Energy =               0.0000000000000000
    EFP Energy =                            0.0000000000000000
    Total Energy =                       -650.1220302899196213
  Basis Set: (AUG-CC-PVTZ AUX)
    Blend: AUG-CC-PVTZ-RI
    Molecular point group: c1

    Geometry (in Angstrom), charge = 0, multiplicity = 1:

       Center              X                  Y                   Z               Mass
    ------------   -----------------  -----------------  -----------------  -----------------
           C         -1.529266603141     0.478405833976    -0.775607232378    12.000000000000
           C         -2.523005455132     1.174642239058    -0.168299166797    12.000000000000
           C          0.680874181932    -1.414192312408    -1.803975700717    12.000000000000
           C          2.046156841433    -0.077853233678    -0.353996883933    12.000000000000
           C         -1.400439428726     0.867473085657     1.978367834636    12.000000000000
           C          1.806826264090    -1.889420044557    -2.401480798078    12.000000000000
           C          3.151683831615    -0.569250199085    -0.977169581724    12.000000000000
           C         -0.425036719442    -0.076240234134    -0.061519031487    12.000000000000
           C          0.735073655894    -0.449094123768    -0.763779371639    12.000000000000
           C         -2.543357734863     1.395420960115     1.262697284667    12.000000000000
           C         -0.404969917947     0.228406404110     1.325490667111    12.000000000000
           N          3.028528871792    -1.462771194220    -1.989860343243    14.003074004780
           O         -3.456608563800     2.007308205990     1.837272337369    15.994914619560
           F          0.642933718439    -0.246429995233     2.051315685484    18.998403224000
           H         -1.542132430672     0.361090486648    -1.851909354830     1.007825032070
           H         -3.320945753181     1.610629997360    -0.749050731747     1.007825032070
           H         -0.275215456086    -1.794155462618    -2.128739288255     1.007825032070
           H          2.178425695943     0.637766569703     0.439456961899     1.007825032070
           H         -1.358196112064     0.987680989361     3.049139473582     1.007825032070
           H          1.794333494420    -2.635648762389    -3.178053921296     1.007825032070
           H          4.155201635139    -0.275924908526    -0.716208187639     1.007825032070
           H          3.855854345260    -1.829681241784    -2.428756748017     1.007825032070

  Basis Set: AUG-CC-PVTZ
    Blend: AUG-CC-PVTZ
  Basis Set: (AUG-CC-PVTZ AUX)
    Blend: AUG-CC-PVTZ-JKFIT
  Basis Set: (AUG-CC-PVTZ AUX)
    Blend: AUG-CC-PVTZ-JKFIT
	 Reference Energy          =    -650.1220302899197350 [Eh]
	 Singles Energy            =      -0.0000000000000004 [Eh]
	 Same-Spin Energy          =      -0.6743512811514493 [Eh]
	 Opposite-Spin Energy      =      -2.0237817965029423 [Eh]
	 Correlation Energy        =      -2.6981330776543921 [Eh]
	 Total Energy              =    -652.8201633675740823 [Eh]

	 ================> DF-SCS-MP2 Energies <==================
	-----------------------------------------------------------
	 SCS Same-Spin Scale       =       0.3333333333333333 [-]
	 SCS Opposite-Spin Scale   =       1.2000000000000000 [-]
	 SCS Same-Spin Energy      =      -0.2247837603838164 [Eh]
	 SCS Opposite-Spin Energy  =      -2.4285381558035306 [Eh]
	 SCS Correlation Energy    =      -2.6533219161873474 [Eh]
	 SCS Total Energy          =    -652.7753522061070726 [Eh]
	-----------------------------------------------------------

  -Total Gradient:
     Atom            X                  Y                   Z
    ------   -----------------  -----------------  -----------------
       1        0.006286121232     0.014665254537     0.001834626615
       2        0.000396889240     0.000585675079     0.000448576089
       3        0.002100705024    -0.010382640601     0.010297851032
       4        0.000226391293     0.000997597623    -0.001426640937
       5       -0.000360169816     0.000749473227     0.000245929203
       6        0.000345560509    -0.000382190101     0.000346711721
       7        0.000698318665    -0.000675447811    -0.000395793075
       8       -0.009328604298    -0.026124997590     0.001371131409
       9       -0.000110900936     0.021068950955    -0.013875048912
      10        0.000084265668    -0.002250655164    -0.000490421530
      11        0.000495911160    -0.000575666017     0.000508497465
      12       -0.000342783511     0.000538734061     0.000440236733
      13       -0.000184007839     0.000939216421     0.000356003264
      14       -0.000675412939     0.000093064220     0.001538228800
      15       -0.000426071426    -0.000200303526    -0.000096218087
      16        0.000173367306    -0.000302854505    -0.000267144690
      17       -0.000083498051     0.000499779117    -0.000371480463
      18       -0.000047609280     0.000563592975    -0.000415199417
      19        0.000247372741     0.000141628215     0.000147254697
      20        0.000110816391     0.000148411323    -0.000106247571
      21        0.000233306764    -0.000150753096    -0.000055712613
      22        0.000160032094     0.000054130654    -0.000035139729

*** Psi4 exiting successfully. Buy a developer a beer!
