                               Psi4 1.1 release

  ==> Input File <==

--------------------------------------------------------------------------

memory 1000 mb

molecule butane {
  symmetry C1
  0 1
  H      1.604   0.760   -8.260
  H      1.745   2.388   -8.880
  H      2.043   1.024   -9.930
  C      2.142   1.395   -8.932
  H      4.169   2.051   -9.210
  H      3.731   1.788   -7.539
  C      3.631   1.416   -8.537
  H      3.665   -0.647   -7.940
  H      4.104   -0.384   -9.610
  C      4.203   -0.012   -8.612
  H      6.294   -0.010   -9.101
  H      5.913   -0.847   -7.617
  H      5.901   0.899   -7.662
  C      5.691   0.009   -8.218
  units Angstrom
}

dih_string = "7 10 14 13 20"
set optking fixed_dihedral = $dih_string

optimize('MP2/aug-cc-pvtz')
--------------------------------------------------------------------------

    Molecular point group: c1
  Charge       = 0
  Multiplicity = 1
  Basis Set: AUG-CC-PVTZ
    Blend: AUG-CC-PVTZ
  Basis Set: (AUG-CC-PVTZ AUX)
    Blend: AUG-CC-PVTZ-JKFIT
  @DF-RHF Final Energy:  -157.34857329186138
    Total Energy =                       -157.3485732918613849
  Basis Set: (AUG-CC-PVTZ AUX)
    Blend: AUG-CC-PVTZ-RI
    Molecular point group: c1
  Basis Set: AUG-CC-PVTZ
    Blend: AUG-CC-PVTZ
  Basis Set: (AUG-CC-PVTZ AUX)
    Blend: AUG-CC-PVTZ-JKFIT
  Basis Set: (AUG-CC-PVTZ AUX)
    Blend: AUG-CC-PVTZ-JKFIT
	 Reference Energy          =    -157.3485732918613849 [Eh]
	 Singles Energy            =      -0.0000000000000000 [Eh]
	 Same-Spin Energy          =      -0.1654627676678525 [Eh]
	 Opposite-Spin Energy      =      -0.6393198278866415 [Eh]
	 Correlation Energy        =      -0.8047825955544941 [Eh]
	 Total Energy              =    -158.1533558874158700 [Eh]
	 SCS Total Energy          =    -158.1709113412146337 [Eh]
  @DF-RHF Final Energy:  -157.35143335204171
    Total Energy =                       -157.3514333520417097
  @DF-RHF Final Energy:  -157.35233588090503
    Total Energy =                       -157.3523358809050308
  @DF-RHF Final Energy:  -157.35266250113520
    Total Energy =                       -157.3526625011351996
  @DF-RHF Final Energy:  -157.35269253571096
    Total Energy =                       -157.3526925357109576
  @DF-RHF Final Energy:  -157.35269542138064
    Total Energy =                       -157.3526954213806448
  @DF-RHF Final Energy:  -157.35268200449931
    Total Energy =                       -157.3526820044993144
  @DF-RHF Final Energy:  -157.35269074637404
    Total Energy =                       -157.3526907463740372
  @DF-RHF Final Energy:  -157.35268647592559
    Total Energy =                       -157.3526864759255943
  @DF-RHF Final Energy:  -157.35269121041370
    Total Energy =                       -157.3526912104136954
  @DF-RHF Final Energy:  -157.35267402384761
    Total Energy =                       -157.3526740238476123
  @DF-RHF Final Energy:  -157.35268669041216
    Total Energy =                       -157.3526866904121562
  @DF-RHF Final Energy:  -157.35268865534434
    Total Energy =                       -157.3526886553443376
  Charge       = 0
  Multiplicity = 1
  Basis Set: AUG-CC-PVTZ
    Blend: AUG-CC-PVTZ
  Basis Set: (AUG-CC-PVTZ AUX)
    Blend: AUG-CC-PVTZ-JKFIT

    Orbital Energies (a.u.)
    -----------------------

    Doubly Occupied:

       1A    -11.211681     2A    -11.210880     3A    -11.205963
       4A    -11.205656     5A     -1.073163     6A     -0.980755
       7A     -0.861699     8A     -0.788746     9A     -0.639240
      10A     -0.584748    11A     -0.577921    12A     -0.568508
      13A     -0.512688    14A     -0.495568    15A     -0.470447
      16A     -0.458116    17A     -0.456048

  @DF-RHF Final Energy:  -157.35268878564773

   => Energetics <=

    Nuclear Repulsion Energy =            131.3585931153887998
    One-Electron Energy =                -470.8189086078784840
    Two-Electron Energy =                 182.1076267068419838
    DFT Exchange-Correlation Energy =       0.0000000000000000
    Empirical Dispersion Energy =           0.0000000000000000
    PCM Polarization Energy =               0.0000000000000000
    EFP Energy =                            0.0000000000000000
    Total Energy =                       -157.3526887856477288
  Basis Set: (AUG-CC-PVTZ AUX)
    Blend: AUG-CC-PVTZ-RI
    Molecular point group: c1
  Basis Set: AUG-CC-PVTZ
    Blend: AUG-CC-PVTZ
  Basis Set: (AUG-CC-PVTZ AUX)
    Blend: AUG-CC-PVTZ-JKFIT
  Basis Set: (AUG-CC-PVTZ AUX)
    Blend: AUG-CC-PVTZ-JKFIT
	 Reference Energy          =    -157.3526887856477288 [Eh]
	 Singles Energy            =      -0.0000000000000000 [Eh]
	 Same-Spin Energy          =      -0.1654579615967351 [Eh]
	 Opposite-Spin Energy      =      -0.6397292749098892 [Eh]
	 Correlation Energy        =      -0.8051872365066243 [Eh]
	 Total Energy              =    -158.1578760221543405 [Eh]

	 ================> DF-SCS-MP2 Energies <==================
	-----------------------------------------------------------
	 SCS Same-Spin Scale       =       0.3333333333333333 [-]
	 SCS Opposite-Spin Scale   =       1.2000000000000000 [-]
	 SCS Same-Spin Energy      =      -0.0551526538655784 [Eh]
	 SCS Opposite-Spin Energy  =      -0.7676751298918670 [Eh]
	 SCS Correlation Energy    =      -0.8228277837574454 [Eh]
	 SCS Total Energy          =    -158.1755165694051755 [Eh]
	-----------------------------------------------------------

  -Total Gradient:
     Atom            X                  Y                   Z
    ------   -----------------  -----------------  -----------------
       1        0.000002074560    -0.000005130636     0.000025057359
       2       -0.000010245247     0.000027440956    -0.000007143745
       3       -0.000002713571    -0.000002707115    -0.000023548795
       4       -0.000032846798    -0.000008131179    -0.000033719186
       5       -0.000019611096    -0.000033065942    -0.000058463662
       6       -0.000038574907    -0.000033828006     0.000027305168
       7       -0.000478589231    -0.000250418417     0.002262211842
       8        0.000005350288     0.000019731565     0.000011404930
       9        0.000062181131     0.000063735280    -0.000055919033
      10        0.000802662773     0.000715758985    -0.003584629494
      11        0.000023576087    -0.000052896274     0.000000320361
      12       -0.000013725717    -0.000031173346     0.000047214083
      13        0.000673711173     0.001507501698    -0.002623227256
      14       -0.000973249446    -0.001916817567     0.004013137428

  **** Optimization is complete! (in 14 steps) ****
    Final optimized geometry and variables:
    Molecular point group: c1

    Geometry (in Angstrom), charge = 0, multiplicity = 1:

    H           -2.355777765938     0.061966364278     0.274783659711
    H           -2.189069506340     1.715733225995    -0.304873652092
    H           -1.886756950605     0.364983053952    -1.392287320364
    C           -1.768222515994     0.714924920700    -0.368396347510
    H            0.265361081759     1.364588442454    -0.603081721225
    H           -0.202143612070     1.074784036559     1.056949216229
    C           -0.307798944058     0.694356613399     0.040202672605
    H           -0.264933728982    -1.339076519937     0.656383178253
    H            0.153544771286    -1.108472771231    -1.020973437097
    C            0.296820257011    -0.696096971078    -0.022281254315
    H            2.404910601097    -0.700640205743    -0.537289100253
    H            2.047895039023    -1.593073908699     0.930505541954
    H            2.040219751105     0.173087635323     0.924959316157
    C            1.778088423082    -0.714350226299     0.351728354386

*** Psi4 exiting successfully. Buy a developer a beer!
